ITEM: TIMESTEP
0
ITEM: NUMBER OF ATOMS
312
ITEM: BOX BOUNDS pp pp pp
-4.9725650000000003e+00 1.4827434000000000e+01
-4.9725650000000003e+00 1.4827434000000000e+01
-2.6646452000000000e+01 7.9153550999999993e+01
ITEM: ATOMS id type xs ys zs
1 1 0.25114 0.25114 0.251857
5 1 0.50013 0.25114 0.251857
3 1 0.25114 0.50013 0.251857
185 2 0.334136 0.417133 0.255381
7 1 0.50013 0.50013 0.251857
189 2 0.583126 0.417133 0.255381
187 2 0.334136 0.666123 0.255381
191 2 0.583126 0.666123 0.255381
33 1 0.334395 0.292768 0.270951
169 2 0.25114 0.25114 0.293366
37 1 0.583385 0.292768 0.270951
49 1 0.458502 0.292768 0.270951
173 2 0.50013 0.25114 0.293366
177 2 0.417133 0.334136 0.293649
53 1 0.707492 0.292768 0.270951
181 2 0.666123 0.334136 0.293649
35 1 0.334395 0.541757 0.270951
171 2 0.25114 0.50013 0.293366
201 2 0.334136 0.417133 0.281105
39 1 0.583385 0.541757 0.270951
41 1 0.458502 0.416874 0.270951
51 1 0.458502 0.541757 0.270951
175 2 0.50013 0.50013 0.293366
179 2 0.417133 0.583126 0.293649
205 2 0.583126 0.417133 0.281105
45 1 0.707492 0.416874 0.270951
55 1 0.707492 0.541757 0.270951
183 2 0.666123 0.583126 0.293649
203 2 0.334136 0.666123 0.281105
43 1 0.458502 0.665864 0.270951
207 2 0.583126 0.666123 0.281105
47 1 0.707492 0.665864 0.270951
25 1 0.333877 0.292508 0.316065
17 1 0.458761 0.292508 0.316065
29 1 0.582867 0.292508 0.316065
21 1 0.707751 0.292508 0.316065
27 1 0.333877 0.541498 0.316065
193 2 0.334136 0.417133 0.331634
209 2 0.334136 0.417133 0.305911
9 1 0.458761 0.417392 0.316065
19 1 0.458761 0.541498 0.316065
31 1 0.582867 0.541498 0.316065
197 2 0.583126 0.417133 0.331634
213 2 0.583126 0.417133 0.305911
13 1 0.707751 0.417392 0.316065
23 1 0.707751 0.541498 0.316065
195 2 0.334136 0.666123 0.331634
211 2 0.334136 0.666123 0.305911
11 1 0.458761 0.666382 0.316065
199 2 0.583126 0.666123 0.331634
215 2 0.583126 0.666123 0.305911
15 1 0.707751 0.666382 0.316065
89 1 0.251399 0.375764 0.354253
105 1 0.375505 0.375764 0.354253
233 2 0.25114 0.25114 0.338683
249 2 0.25114 0.25114 0.364407
57 1 0.417133 0.334136 0.335159
93 1 0.500389 0.375764 0.354253
237 2 0.50013 0.25114 0.338683
253 2 0.50013 0.25114 0.364407
61 1 0.666123 0.334136 0.335159
109 1 0.624495 0.375764 0.354253
97 1 0.375505 0.49987 0.354253
235 2 0.25114 0.50013 0.338683
251 2 0.25114 0.50013 0.364407
59 1 0.417133 0.583126 0.335159
239 2 0.50013 0.50013 0.338683
255 2 0.50013 0.50013 0.364407
63 1 0.666123 0.583126 0.335159
101 1 0.624495 0.49987 0.354253
91 1 0.251399 0.624754 0.354253
99 1 0.375505 0.74886 0.354253
107 1 0.375505 0.624754 0.354253
95 1 0.500389 0.624754 0.354253
103 1 0.624495 0.74886 0.354253
111 1 0.624495 0.624754 0.354253
65 1 0.375764 0.251399 0.399366
73 1 0.375764 0.375505 0.399366
257 2 0.25114 0.25114 0.389212
81 1 0.49987 0.375505 0.399366
217 2 0.417133 0.334136 0.376668
261 2 0.50013 0.25114 0.389212
69 1 0.624754 0.251399 0.399366
77 1 0.624754 0.375505 0.399366
85 1 0.74886 0.375505 0.399366
221 2 0.666123 0.334136 0.376668
67 1 0.375764 0.500389 0.399366
225 2 0.334136 0.417133 0.376951
259 2 0.25114 0.50013 0.389212
219 2 0.417133 0.583126 0.376668
229 2 0.583126 0.417133 0.376951
263 2 0.50013 0.50013 0.389212
71 1 0.624754 0.500389 0.399366
223 2 0.666123 0.583126 0.376668
75 1 0.375764 0.624495 0.399366
227 2 0.334136 0.666123 0.376951
83 1 0.49987 0.624495 0.399366
231 2 0.583126 0.666123 0.376951
79 1 0.624754 0.624495 0.399366
87 1 0.74886 0.624495 0.399366
241 2 0.25114 0.25114 0.414936
245 2 0.50013 0.25114 0.414936
281 2 0.417133 0.334136 0.421985
285 2 0.666123 0.334136 0.421985
113 1 0.334136 0.417133 0.41846
243 2 0.25114 0.50013 0.414936
117 1 0.583126 0.417133 0.41846
247 2 0.50013 0.50013 0.414936
283 2 0.417133 0.583126 0.421985
287 2 0.666123 0.583126 0.421985
115 1 0.334136 0.666123 0.41846
119 1 0.583126 0.666123 0.41846
153 1 0.292508 0.333877 0.437554
273 2 0.25114 0.25114 0.460253
157 1 0.541498 0.333877 0.437554
277 2 0.50013 0.25114 0.460253
297 2 0.417133 0.334136 0.447709
301 2 0.666123 0.334136 0.447709
155 1 0.292508 0.582867 0.437554
161 1 0.292508 0.458761 0.437554
265 2 0.334136 0.417133 0.45997
275 2 0.25114 0.50013 0.460253
145 1 0.417392 0.458761 0.437554
159 1 0.541498 0.582867 0.437554
165 1 0.541498 0.458761 0.437554
269 2 0.583126 0.417133 0.45997
279 2 0.50013 0.50013 0.460253
299 2 0.417133 0.583126 0.447709
149 1 0.666382 0.458761 0.437554
303 2 0.666123 0.583126 0.447709
163 1 0.292508 0.707751 0.437554
267 2 0.334136 0.666123 0.45997
147 1 0.417392 0.707751 0.437554
167 1 0.541498 0.707751 0.437554
271 2 0.583126 0.666123 0.45997
151 1 0.666382 0.707751 0.437554
121 1 0.292768 0.334395 0.482668
125 1 0.541757 0.334395 0.482668
289 2 0.417133 0.334136 0.498238
305 2 0.417133 0.334136 0.472514
293 2 0.666123 0.334136 0.498238
309 2 0.666123 0.334136 0.472514
123 1 0.292768 0.583385 0.482668
129 1 0.292768 0.458502 0.482668
127 1 0.541757 0.583385 0.482668
133 1 0.541757 0.458502 0.482668
137 1 0.416874 0.458502 0.482668
291 2 0.417133 0.583126 0.498238
307 2 0.417133 0.583126 0.472514
141 1 0.665864 0.458502 0.482668
295 2 0.666123 0.583126 0.498238
311 2 0.666123 0.583126 0.472514
131 1 0.292768 0.707492 0.482668
135 1 0.541757 0.707492 0.482668
139 1 0.416874 0.707492 0.482668
143 1 0.665864 0.707492 0.482668
2 1 0.25114 0.25114 0.501762
34 1 0.334395 0.292768 0.520856
6 1 0.50013 0.25114 0.501762
38 1 0.583385 0.292768 0.520856
50 1 0.458502 0.292768 0.520856
54 1 0.707492 0.292768 0.520856
4 1 0.25114 0.50013 0.501762
36 1 0.334395 0.541757 0.520856
186 2 0.334136 0.417133 0.505287
202 2 0.334136 0.417133 0.53101
8 1 0.50013 0.50013 0.501762
40 1 0.583385 0.541757 0.520856
42 1 0.458502 0.416874 0.520856
52 1 0.458502 0.541757 0.520856
190 2 0.583126 0.417133 0.505287
206 2 0.583126 0.417133 0.53101
46 1 0.707492 0.416874 0.520856
56 1 0.707492 0.541757 0.520856
188 2 0.334136 0.666123 0.505287
204 2 0.334136 0.666123 0.53101
44 1 0.458502 0.665864 0.520856
192 2 0.583126 0.666123 0.505287
208 2 0.583126 0.666123 0.53101
48 1 0.707492 0.665864 0.520856
26 1 0.333877 0.292508 0.56597
170 2 0.25114 0.25114 0.543272
18 1 0.458761 0.292508 0.56597
30 1 0.582867 0.292508 0.56597
174 2 0.50013 0.25114 0.543272
178 2 0.417133 0.334136 0.543555
22 1 0.707751 0.292508 0.56597
182 2 0.666123 0.334136 0.543555
28 1 0.333877 0.541498 0.56597
172 2 0.25114 0.50013 0.543272
210 2 0.334136 0.417133 0.555816
10 1 0.458761 0.417392 0.56597
20 1 0.458761 0.541498 0.56597
32 1 0.582867 0.541498 0.56597
176 2 0.50013 0.50013 0.543272
180 2 0.417133 0.583126 0.543555
214 2 0.583126 0.417133 0.555816
14 1 0.707751 0.417392 0.56597
24 1 0.707751 0.541498 0.56597
184 2 0.666123 0.583126 0.543555
212 2 0.334136 0.666123 0.555816
12 1 0.458761 0.666382 0.56597
216 2 0.583126 0.666123 0.555816
16 1 0.707751 0.666382 0.56597
234 2 0.25114 0.25114 0.588589
58 1 0.417133 0.334136 0.585064
238 2 0.50013 0.25114 0.588589
62 1 0.666123 0.334136 0.585064
194 2 0.334136 0.417133 0.58154
236 2 0.25114 0.50013 0.588589
60 1 0.417133 0.583126 0.585064
198 2 0.583126 0.417133 0.58154
240 2 0.50013 0.50013 0.588589
64 1 0.666123 0.583126 0.585064
196 2 0.334136 0.666123 0.58154
200 2 0.583126 0.666123 0.58154
90 1 0.251399 0.375764 0.604158
106 1 0.375505 0.375764 0.604158
250 2 0.25114 0.25114 0.614312
94 1 0.500389 0.375764 0.604158
218 2 0.417133 0.334136 0.626573
254 2 0.50013 0.25114 0.614312
110 1 0.624495 0.375764 0.604158
222 2 0.666123 0.334136 0.626573
98 1 0.375505 0.49987 0.604158
226 2 0.334136 0.417133 0.626857
252 2 0.25114 0.50013 0.614312
220 2 0.417133 0.583126 0.626573
230 2 0.583126 0.417133 0.626857
256 2 0.50013 0.50013 0.614312
102 1 0.624495 0.49987 0.604158
224 2 0.666123 0.583126 0.626573
92 1 0.251399 0.624754 0.604158
100 1 0.375505 0.74886 0.604158
108 1 0.375505 0.624754 0.604158
228 2 0.334136 0.666123 0.626857
96 1 0.500389 0.624754 0.604158
232 2 0.583126 0.666123 0.626857
104 1 0.624495 0.74886 0.604158
112 1 0.624495 0.624754 0.604158
66 1 0.375764 0.251399 0.649272
74 1 0.375764 0.375505 0.649272
242 2 0.25114 0.25114 0.664841
258 2 0.25114 0.25114 0.639118
82 1 0.49987 0.375505 0.649272
246 2 0.50013 0.25114 0.664841
262 2 0.50013 0.25114 0.639118
70 1 0.624754 0.251399 0.649272
78 1 0.624754 0.375505 0.649272
86 1 0.74886 0.375505 0.649272
68 1 0.375764 0.500389 0.649272
244 2 0.25114 0.50013 0.664841
260 2 0.25114 0.50013 0.639118
248 2 0.50013 0.50013 0.664841
264 2 0.50013 0.50013 0.639118
72 1 0.624754 0.500389 0.649272
76 1 0.375764 0.624495 0.649272
84 1 0.49987 0.624495 0.649272
80 1 0.624754 0.624495 0.649272
88 1 0.74886 0.624495 0.649272
154 1 0.292508 0.333877 0.68746
158 1 0.541498 0.333877 0.68746
282 2 0.417133 0.334136 0.671891
298 2 0.417133 0.334136 0.697614
286 2 0.666123 0.334136 0.671891
302 2 0.666123 0.334136 0.697614
114 1 0.334136 0.417133 0.668366
156 1 0.292508 0.582867 0.68746
162 1 0.292508 0.458761 0.68746
118 1 0.583126 0.417133 0.668366
146 1 0.417392 0.458761 0.68746
160 1 0.541498 0.582867 0.68746
166 1 0.541498 0.458761 0.68746
284 2 0.417133 0.583126 0.671891
300 2 0.417133 0.583126 0.697614
150 1 0.666382 0.458761 0.68746
288 2 0.666123 0.583126 0.671891
304 2 0.666123 0.583126 0.697614
116 1 0.334136 0.666123 0.668366
164 1 0.292508 0.707751 0.68746
120 1 0.583126 0.666123 0.668366
148 1 0.417392 0.707751 0.68746
168 1 0.541498 0.707751 0.68746
152 1 0.666382 0.707751 0.68746
122 1 0.292768 0.334395 0.732574
274 2 0.25114 0.25114 0.710158
126 1 0.541757 0.334395 0.732574
278 2 0.50013 0.25114 0.710158
306 2 0.417133 0.334136 0.72242
310 2 0.666123 0.334136 0.72242
124 1 0.292768 0.583385 0.732574
130 1 0.292768 0.458502 0.732574
266 2 0.334136 0.417133 0.709875
276 2 0.25114 0.50013 0.710158
128 1 0.541757 0.583385 0.732574
134 1 0.541757 0.458502 0.732574
138 1 0.416874 0.458502 0.732574
270 2 0.583126 0.417133 0.709875
280 2 0.50013 0.50013 0.710158
308 2 0.417133 0.583126 0.72242
142 1 0.665864 0.458502 0.732574
312 2 0.666123 0.583126 0.72242
132 1 0.292768 0.707492 0.732574
268 2 0.334136 0.666123 0.709875
136 1 0.541757 0.707492 0.732574
140 1 0.416874 0.707492 0.732574
272 2 0.583126 0.666123 0.709875
144 1 0.665864 0.707492 0.732574
290 2 0.417133 0.334136 0.748143
294 2 0.666123 0.334136 0.748143
292 2 0.417133 0.583126 0.748143
296 2 0.666123 0.583126 0.748143
ITEM: TIMESTEP
100
ITEM: NUMBER OF ATOMS
312
ITEM: BOX BOUNDS pp pp pp
-4.9725650000000003e+00 1.4827434000000000e+01
-4.9725650000000003e+00 1.4827434000000000e+01
-2.6646452000000000e+01 7.9153550999999993e+01
ITEM: ATOMS id type xs ys zs
1 1 0.279018 0.289297 0.251904
5 1 0.497464 0.303677 0.248802
3 1 0.279161 0.567015 0.247447
185 2 0.381452 0.347825 0.251449
7 1 0.499173 0.524794 0.246154
189 2 0.602785 0.362371 0.253823
187 2 0.396492 0.59846 0.250893
191 2 0.541964 0.636889 0.250916
33 1 0.337395 0.291876 0.270911
169 2 0.289615 0.325102 0.291713
37 1 0.560272 0.262645 0.266551
49 1 0.457428 0.318463 0.272085
173 2 0.550044 0.280717 0.290414
177 2 0.447285 0.33921 0.296258
53 1 0.670895 0.302409 0.270736
181 2 0.681615 0.370186 0.291182
35 1 0.31182 0.541612 0.267651
171 2 0.29076 0.543591 0.293189
201 2 0.372421 0.432362 0.276378
39 1 0.580201 0.539069 0.264895
41 1 0.482362 0.419841 0.256163
51 1 0.458177 0.530142 0.267593
175 2 0.461287 0.534386 0.295323
179 2 0.460583 0.529924 0.296243
205 2 0.544414 0.42528 0.278055
45 1 0.676291 0.421774 0.269123
55 1 0.691976 0.535027 0.272997
183 2 0.630363 0.542728 0.292821
203 2 0.375586 0.641847 0.27784
43 1 0.445423 0.707806 0.260143
207 2 0.530001 0.65484 0.278564
47 1 0.640198 0.637487 0.268084
25 1 0.35987 0.286614 0.312784
17 1 0.481575 0.24894 0.310503
29 1 0.602106 0.261106 0.312637
21 1 0.713781 0.287588 0.306917
27 1 0.339631 0.546608 0.321628
193 2 0.362388 0.437493 0.336555
209 2 0.339829 0.425028 0.309643
9 1 0.450676 0.356201 0.322773
19 1 0.466239 0.56221 0.320658
31 1 0.598229 0.531155 0.31931
197 2 0.662662 0.424057 0.336943
213 2 0.574655 0.406131 0.310107
13 1 0.712637 0.396212 0.314887
23 1 0.705452 0.513608 0.310447
195 2 0.337481 0.661105 0.338226
211 2 0.380008 0.654154 0.309557
11 1 0.461155 0.682571 0.328144
199 2 0.564485 0.615621 0.337271
215 2 0.544456 0.655572 0.308853
15 1 0.660884 0.625874 0.317968
89 1 0.233199 0.415997 0.345323
105 1 0.346353 0.399688 0.349849
233 2 0.289264 0.309356 0.334717
249 2 0.341261 0.287785 0.361469
57 1 0.409901 0.275195 0.339894
93 1 0.465378 0.378015 0.34838
237 2 0.560571 0.308869 0.33416
253 2 0.497977 0.26825 0.359919
61 1 0.676552 0.305683 0.327248
109 1 0.589707 0.386422 0.353293
97 1 0.36585 0.522482 0.353394
235 2 0.246838 0.5416 0.339699
251 2 0.23847 0.490068 0.366542
59 1 0.44454 0.556736 0.337901
239 2 0.517543 0.468573 0.334748
255 2 0.508184 0.522448 0.361502
63 1 0.694626 0.541748 0.333042
101 1 0.633767 0.525418 0.351658
91 1 0.223302 0.618311 0.358508
99 1 0.376005 0.71484 0.36227
107 1 0.32919 0.630311 0.351529
95 1 0.45511 0.658214 0.349619
103 1 0.561626 0.70497 0.354826
111 1 0.608942 0.618428 0.366275
65 1 0.424054 0.234656 0.408748
73 1 0.394534 0.344817 0.399659
257 2 0.277094 0.346146 0.389611
81 1 0.497523 0.40486 0.400357
217 2 0.408394 0.405062 0.376645
261 2 0.494682 0.270077 0.389156
69 1 0.629312 0.237429 0.395801
77 1 0.599117 0.347345 0.399007
85 1 0.703172 0.383971 0.3932
221 2 0.624428 0.327705 0.375564
67 1 0.399334 0.474634 0.409346
225 2 0.379053 0.427141 0.37328
259 2 0.28532 0.501313 0.395147
219 2 0.36481 0.583529 0.374616
229 2 0.561527 0.390884 0.376619
263 2 0.499028 0.533635 0.392394
71 1 0.626094 0.466969 0.402545
223 2 0.644181 0.510489 0.37845
75 1 0.374413 0.606408 0.399078
227 2 0.318453 0.619843 0.376596
83 1 0.486256 0.676456 0.396787
231 2 0.490718 0.665686 0.373579
79 1 0.594334 0.628948 0.388057
87 1 0.691413 0.574237 0.396427
241 2 0.306248 0.285467 0.41479
245 2 0.55835 0.248447 0.415506
281 2 0.437357 0.350211 0.419529
285 2 0.689988 0.312968 0.413777
113 1 0.282061 0.408789 0.413334
243 2 0.313477 0.564029 0.421132
117 1 0.580545 0.373348 0.417186
247 2 0.527257 0.480721 0.422415
283 2 0.450387 0.615887 0.415835
287 2 0.649622 0.576502 0.417915
115 1 0.299253 0.679506 0.426723
119 1 0.552972 0.688025 0.414139
153 1 0.290315 0.354953 0.435804
273 2 0.285081 0.311017 0.459772
157 1 0.530657 0.32651 0.435476
277 2 0.545866 0.290835 0.459823
297 2 0.41103 0.337839 0.446768
301 2 0.647867 0.366216 0.441504
155 1 0.262666 0.605722 0.442441
161 1 0.257686 0.470631 0.442016
265 2 0.341452 0.463754 0.460217
275 2 0.29969 0.527338 0.461162
145 1 0.36233 0.449386 0.431435
159 1 0.548648 0.613365 0.431188
165 1 0.551587 0.450318 0.433373
269 2 0.520475 0.45465 0.458001
279 2 0.520256 0.455342 0.463405
299 2 0.43187 0.560684 0.442631
149 1 0.670141 0.449987 0.423022
303 2 0.646181 0.521478 0.44462
163 1 0.293818 0.719907 0.442202
267 2 0.354861 0.667323 0.459039
147 1 0.403371 0.691736 0.436104
167 1 0.518394 0.701327 0.443529
271 2 0.546759 0.625027 0.460752
151 1 0.641615 0.649196 0.44102
121 1 0.284848 0.37112 0.481535
125 1 0.555264 0.306996 0.484674
289 2 0.470065 0.327561 0.50284
305 2 0.41348 0.339586 0.476113
293 2 0.649289 0.330242 0.503567
309 2 0.655697 0.369582 0.472515
123 1 0.262366 0.588779 0.481621
129 1 0.318899 0.48442 0.483742
127 1 0.542511 0.562726 0.490119
133 1 0.567804 0.442636 0.48575
137 1 0.444432 0.455073 0.48966
291 2 0.433344 0.558085 0.511596
307 2 0.420029 0.5739 0.478847
141 1 0.69569 0.442243 0.49169
295 2 0.662706 0.556803 0.501586
311 2 0.654641 0.525816 0.473372
131 1 0.284886 0.701873 0.478093
135 1 0.512939 0.678933 0.481462
139 1 0.397692 0.708597 0.481
143 1 0.627486 0.644215 0.48239
2 1 0.345277 0.296653 0.496308
34 1 0.353948 0.327143 0.518992
6 1 0.602165 0.221939 0.496942
38 1 0.56087 0.25318 0.516362
50 1 0.459698 0.289491 0.525199
54 1 0.66566 0.288564 0.526348
4 1 0.221008 0.591302 0.502071
36 1 0.295744 0.55467 0.517558
186 2 0.341314 0.42205 0.502479
202 2 0.33475 0.450093 0.530526
8 1 0.558541 0.442191 0.505694
40 1 0.56858 0.54489 0.518608
42 1 0.453623 0.416681 0.519797
52 1 0.426054 0.577122 0.519413
190 2 0.563032 0.439622 0.496889
206 2 0.58904 0.41468 0.527411
46 1 0.719015 0.392572 0.52246
56 1 0.693028 0.516739 0.52407
188 2 0.327548 0.65113 0.499561
204 2 0.350063 0.662254 0.530083
44 1 0.436238 0.700316 0.512254
192 2 0.559386 0.669593 0.503943
208 2 0.522122 0.66045 0.530819
48 1 0.648656 0.633091 0.522307
26 1 0.360926 0.292073 0.565678
170 2 0.306296 0.315229 0.543251
18 1 0.480203 0.256364 0.559241
30 1 0.609632 0.257037 0.562278
174 2 0.560186 0.27925 0.540831
178 2 0.457376 0.352727 0.544724
22 1 0.723939 0.288048 0.561373
182 2 0.69625 0.371446 0.545978
28 1 0.352622 0.544144 0.575399
172 2 0.273301 0.560482 0.54772
210 2 0.356245 0.430824 0.560829
10 1 0.457279 0.352678 0.572322
20 1 0.468788 0.576728 0.572897
32 1 0.593334 0.533763 0.570519
176 2 0.469509 0.519994 0.542754
180 2 0.442385 0.55209 0.544307
214 2 0.571565 0.414625 0.560307
14 1 0.702675 0.395976 0.570608
24 1 0.698944 0.504114 0.561816
184 2 0.626961 0.545176 0.543881
212 2 0.376519 0.656114 0.561336
12 1 0.460549 0.693041 0.57852
216 2 0.540579 0.656108 0.559723
16 1 0.660013 0.624405 0.568617
234 2 0.284875 0.2843 0.586734
58 1 0.413964 0.271393 0.589427
238 2 0.568788 0.303783 0.58295
62 1 0.685157 0.288382 0.578095
194 2 0.345204 0.40977 0.591407
236 2 0.242173 0.530973 0.58794
60 1 0.459245 0.579535 0.586955
198 2 0.618674 0.435829 0.58998
240 2 0.472845 0.483647 0.57952
64 1 0.694997 0.531428 0.58286
196 2 0.333542 0.653243 0.591948
200 2 0.570934 0.623013 0.588412
90 1 0.217959 0.39954 0.592441
106 1 0.348038 0.390015 0.600972
250 2 0.352327 0.275181 0.612232
94 1 0.476043 0.379067 0.59529
218 2 0.400087 0.407106 0.623706
254 2 0.507477 0.269508 0.608547
110 1 0.59465 0.389229 0.603156
222 2 0.622779 0.339743 0.624584
98 1 0.376909 0.525896 0.598181
226 2 0.405163 0.418328 0.628129
252 2 0.258094 0.468152 0.614268
220 2 0.373724 0.58027 0.62217
230 2 0.564614 0.388641 0.626253
256 2 0.51509 0.516828 0.608967
102 1 0.65555 0.535417 0.603618
224 2 0.647538 0.511657 0.628651
92 1 0.224718 0.605534 0.606845
100 1 0.377889 0.718812 0.61447
108 1 0.333696 0.635634 0.601746
228 2 0.31811 0.613382 0.62474
96 1 0.457154 0.680828 0.599884
232 2 0.496285 0.660851 0.623598
104 1 0.567126 0.710959 0.605657
112 1 0.613241 0.620821 0.616318
66 1 0.41537 0.236935 0.65775
74 1 0.389441 0.354864 0.64973
242 2 0.299098 0.296151 0.664943
258 2 0.270505 0.350159 0.638716
82 1 0.494133 0.407247 0.651738
246 2 0.556844 0.248681 0.66272
262 2 0.477044 0.276953 0.637148
70 1 0.642905 0.249874 0.644977
78 1 0.596003 0.351528 0.648499
86 1 0.703389 0.381041 0.642864
68 1 0.398594 0.478329 0.658907
244 2 0.31077 0.568621 0.669676
260 2 0.287944 0.504456 0.6437
248 2 0.521125 0.473663 0.675403
264 2 0.505052 0.53559 0.642759
72 1 0.635584 0.465274 0.652336
76 1 0.377295 0.606341 0.647748
84 1 0.494322 0.672625 0.647527
80 1 0.600777 0.630518 0.637971
88 1 0.695684 0.573009 0.646925
154 1 0.305785 0.359662 0.692545
158 1 0.544281 0.31821 0.683853
282 2 0.435577 0.345196 0.669247
298 2 0.4368 0.360914 0.696601
286 2 0.684033 0.319747 0.664754
302 2 0.654287 0.372683 0.693094
114 1 0.275846 0.418 0.661539
156 1 0.271208 0.607651 0.692094
162 1 0.271836 0.48555 0.694948
118 1 0.579182 0.374873 0.665649
146 1 0.349345 0.445591 0.678786
160 1 0.536789 0.605551 0.684373
166 1 0.547139 0.447586 0.685884
284 2 0.455041 0.609491 0.666532
300 2 0.404359 0.549053 0.693749
150 1 0.66198 0.454274 0.673464
288 2 0.624874 0.577046 0.665784
304 2 0.65145 0.535777 0.693364
116 1 0.301508 0.6834 0.676349
164 1 0.307156 0.7194 0.69386
120 1 0.564432 0.679878 0.666467
148 1 0.408392 0.689355 0.685116
168 1 0.518488 0.712832 0.693059
152 1 0.633696 0.662227 0.686073
122 1 0.326532 0.356947 0.735138
274 2 0.332942 0.292345 0.713772
126 1 0.562076 0.270895 0.733647
278 2 0.556669 0.281059 0.709329
306 2 0.456708 0.355417 0.728065
310 2 0.647624 0.365282 0.726201
124 1 0.308558 0.591358 0.739409
130 1 0.323424 0.478093 0.735393
266 2 0.338391 0.442835 0.71321
276 2 0.288553 0.561345 0.715212
128 1 0.525902 0.593981 0.744711
134 1 0.554577 0.479988 0.737318
138 1 0.443825 0.470588 0.746234
270 2 0.546116 0.455295 0.709528
280 2 0.527312 0.471624 0.709904
308 2 0.432786 0.557347 0.726656
142 1 0.663056 0.44609 0.745345
312 2 0.663011 0.526887 0.723308
132 1 0.281203 0.676035 0.724845
268 2 0.388231 0.681908 0.709874
136 1 0.497132 0.679562 0.729572
140 1 0.384035 0.681064 0.735559
272 2 0.548284 0.629642 0.709479
144 1 0.61483 0.646446 0.73147
290 2 0.406278 0.358981 0.754555
294 2 0.55769 0.366799 0.749863
292 2 0.40936 0.594931 0.753836
296 2 0.644421 0.56884 0.74961
ITEM: TIMESTEP
200
ITEM: NUMBER OF ATOMS
312
ITEM: BOX BOUNDS pp pp pp
-4.9725650000000003e+00 1.4827434000000000e+01
-4.9725650000000003e+00 1.4827434000000000e+01
-2.6646452000000000e+01 7.9153550999999993e+01
ITEM: ATOMS id type xs ys zs
1 1 0.278958 0.289135 0.251929
5 1 0.49735 0.303612 0.248765
3 1 0.27975 0.567209 0.247407
185 2 0.381297 0.34783 0.251477
7 1 0.499229 0.524904 0.246164
189 2 0.602687 0.362209 0.253829
187 2 0.396415 0.598524 0.250882
191 2 0.542244 0.637118 0.250907
33 1 0.337447 0.291838 0.270927
169 2 0.289559 0.324975 0.291728
37 1 0.560091 0.262286 0.26649
49 1 0.457528 0.318455 0.272073
173 2 0.550567 0.280745 0.290353
177 2 0.447019 0.339381 0.296284
53 1 0.670524 0.302361 0.270787
181 2 0.681923 0.37054 0.291158
35 1 0.31221 0.541596 0.267625
171 2 0.290977 0.543372 0.293198
201 2 0.37246 0.431937 0.276306
39 1 0.580204 0.539107 0.264877
41 1 0.482344 0.419651 0.256168
51 1 0.45798 0.529896 0.267665
175 2 0.461377 0.534312 0.295376
179 2 0.460672 0.529863 0.296287
205 2 0.544336 0.425538 0.278032
45 1 0.676229 0.421895 0.269091
55 1 0.691961 0.535206 0.272966
183 2 0.630393 0.542791 0.292799
203 2 0.375801 0.641941 0.277809
43 1 0.445528 0.707778 0.260222
207 2 0.529863 0.654496 0.278597
47 1 0.64004 0.637607 0.268035
25 1 0.359838 0.286538 0.312767
17 1 0.481645 0.248661 0.310453
29 1 0.602001 0.261145 0.312634
21 1 0.713591 0.287522 0.306864
27 1 0.339544 0.546644 0.321668
193 2 0.362492 0.43762 0.33657
209 2 0.339742 0.424633 0.30966
9 1 0.450627 0.355969 0.322774
19 1 0.466078 0.562261 0.320613
31 1 0.598165 0.531004 0.31932
197 2 0.663046 0.424086 0.336868
213 2 0.574782 0.405973 0.310094
13 1 0.712912 0.396076 0.314856
23 1 0.705406 0.513511 0.310451
195 2 0.337477 0.661283 0.338204
211 2 0.380043 0.654294 0.309591
11 1 0.461162 0.682798 0.328126
199 2 0.564378 0.615516 0.337274
215 2 0.544425 0.655461 0.308858
15 1 0.660798 0.62577 0.317974
89 1 0.232949 0.416285 0.345192
105 1 0.346063 0.399823 0.349877
233 2 0.289376 0.309436 0.334726
249 2 0.341438 0.287769 0.361484
57 1 0.409953 0.275112 0.339932
93 1 0.465251 0.377841 0.348435
237 2 0.56075 0.308912 0.334175
253 2 0.498064 0.268038 0.359917
61 1 0.676686 0.305564 0.327218
109 1 0.589599 0.386947 0.353289
97 1 0.365665 0.5226 0.353418
235 2 0.24683 0.541819 0.339689
251 2 0.238623 0.490062 0.366525
59 1 0.444422 0.556658 0.337946
239 2 0.517708 0.468211 0.334775
255 2 0.508148 0.522578 0.361492
63 1 0.694722 0.541829 0.33306
101 1 0.633782 0.52517 0.351664
91 1 0.223145 0.618335 0.358532
99 1 0.375954 0.714977 0.362267
107 1 0.329024 0.630433 0.351547
95 1 0.455035 0.658426 0.349596
103 1 0.56163 0.705007 0.354798
111 1 0.608959 0.618453 0.366252
65 1 0.424187 0.234667 0.408747
73 1 0.394735 0.344672 0.399628
257 2 0.277369 0.345906 0.389695
81 1 0.497505 0.40502 0.400348
217 2 0.408194 0.405277 0.376653
261 2 0.49468 0.270033 0.389117
69 1 0.62927 0.237476 0.395763
77 1 0.599026 0.347392 0.39899
85 1 0.703092 0.38415 0.393206
221 2 0.624481 0.327923 0.375547
67 1 0.399307 0.47471 0.409354
225 2 0.379251 0.427175 0.373263
259 2 0.285307 0.501304 0.395144
219 2 0.364817 0.583647 0.374629
229 2 0.561271 0.391044 0.376623
263 2 0.498958 0.533785 0.392381
71 1 0.625867 0.467063 0.40255
223 2 0.644182 0.510493 0.378447
75 1 0.374345 0.606478 0.399084
227 2 0.318369 0.619932 0.376606
83 1 0.486232 0.676514 0.396767
231 2 0.490727 0.665826 0.373555
79 1 0.594304 0.628993 0.388037
87 1 0.691274 0.574268 0.396432
241 2 0.306415 0.285326 0.414789
245 2 0.558248 0.248481 0.415468
281 2 0.437391 0.35042 0.419521
285 2 0.689862 0.312986 0.413746
113 1 0.282134 0.40876 0.413327
243 2 0.313454 0.564053 0.421143
117 1 0.580446 0.373341 0.417225
247 2 0.527204 0.48086 0.4224
283 2 0.450347 0.615995 0.415823
287 2 0.649868 0.576493 0.417944
115 1 0.299213 0.6795 0.426747
119 1 0.552874 0.688195 0.414115
153 1 0.29019 0.354862 0.435785
273 2 0.284836 0.311335 0.459782
157 1 0.530426 0.326172 0.435474
277 2 0.545691 0.290834 0.459842
297 2 0.410798 0.337638 0.446753
301 2 0.647642 0.366075 0.441481
155 1 0.262648 0.605687 0.442461
161 1 0.25778 0.47035 0.442067
265 2 0.341625 0.463859 0.460243
275 2 0.300148 0.527203 0.461171
145 1 0.36228 0.449355 0.431445
159 1 0.548769 0.613518 0.431147
165 1 0.551358 0.450083 0.433402
269 2 0.520476 0.455472 0.458049
279 2 0.520134 0.454545 0.463311
299 2 0.432093 0.560753 0.442625
149 1 0.6701 0.449937 0.423014
303 2 0.646117 0.521345 0.444628
163 1 0.293829 0.719916 0.442202
267 2 0.354809 0.66725 0.459042
147 1 0.403379 0.691794 0.436108
167 1 0.51841 0.701242 0.443536
271 2 0.546779 0.625045 0.460774
151 1 0.641624 0.649062 0.441068
121 1 0.284833 0.371242 0.481569
125 1 0.555165 0.306884 0.484675
289 2 0.470185 0.327549 0.502758
305 2 0.413508 0.339554 0.476112
293 2 0.649 0.330529 0.503556
309 2 0.655529 0.369598 0.472496
123 1 0.262494 0.588801 0.481622
129 1 0.318978 0.484507 0.483772
127 1 0.542534 0.562778 0.490129
133 1 0.567492 0.442752 0.485676
137 1 0.444426 0.454954 0.489654
291 2 0.433361 0.558031 0.511607
307 2 0.420119 0.574021 0.478878
141 1 0.695583 0.442272 0.491681
295 2 0.662746 0.556736 0.501556
311 2 0.65457 0.52583 0.473364
131 1 0.284897 0.701909 0.478096
135 1 0.512983 0.67901 0.481482
139 1 0.397706 0.708655 0.481001
143 1 0.627494 0.644193 0.482403
2 1 0.345169 0.296675 0.496329
34 1 0.35412 0.327123 0.519018
6 1 0.602433 0.222027 0.496934
38 1 0.561031 0.252847 0.516366
50 1 0.459888 0.289234 0.52521
54 1 0.665601 0.28881 0.526366
4 1 0.220991 0.5915 0.502081
36 1 0.295849 0.554729 0.517553
186 2 0.341438 0.422059 0.502506
202 2 0.334728 0.450109 0.53054
8 1 0.559225 0.442326 0.505711
40 1 0.56848 0.544796 0.518592
42 1 0.45371 0.416476 0.519804
52 1 0.426115 0.576798 0.519428
190 2 0.562719 0.438893 0.497048
206 2 0.589015 0.414874 0.527407
46 1 0.719082 0.392654 0.52248
56 1 0.692995 0.516803 0.524092
188 2 0.327535 0.651244 0.499575
204 2 0.350418 0.662222 0.530117
44 1 0.436267 0.700286 0.512214
192 2 0.559438 0.669633 0.503966
208 2 0.521754 0.660439 0.530838
48 1 0.648497 0.633066 0.522328
26 1 0.360917 0.291806 0.565644
170 2 0.306188 0.315158 0.543252
18 1 0.480348 0.256113 0.559246
30 1 0.60967 0.256964 0.562288
174 2 0.560307 0.279312 0.540841
178 2 0.457268 0.352468 0.544734
22 1 0.723868 0.28827 0.561376
182 2 0.696444 0.371942 0.546008
28 1 0.352815 0.544102 0.575411
172 2 0.273492 0.560437 0.547802
210 2 0.356024 0.430637 0.560835
10 1 0.457503 0.352555 0.572339
20 1 0.468807 0.577335 0.573035
32 1 0.593297 0.533669 0.570515
176 2 0.469545 0.519638 0.542796
180 2 0.442446 0.551708 0.544346
214 2 0.571633 0.414487 0.560301
14 1 0.702566 0.396018 0.570686
24 1 0.69893 0.503814 0.561773
184 2 0.626815 0.545357 0.543884
212 2 0.376778 0.656068 0.561362
12 1 0.460682 0.693441 0.578518
216 2 0.540728 0.656189 0.559742
16 1 0.660102 0.624184 0.568601
234 2 0.284767 0.284286 0.586731
58 1 0.413859 0.271378 0.589419
238 2 0.5689 0.303615 0.582954
62 1 0.685261 0.288191 0.578105
194 2 0.345239 0.409654 0.591404
236 2 0.242164 0.53092 0.587886
60 1 0.459215 0.579704 0.587005
198 2 0.618409 0.435635 0.59002
240 2 0.472779 0.483622 0.579442
64 1 0.695034 0.530827 0.582817
196 2 0.333499 0.65301 0.592063
200 2 0.570993 0.623119 0.588416
90 1 0.217914 0.399606 0.592431
106 1 0.348093 0.389904 0.600958
250 2 0.35229 0.275118 0.612251
94 1 0.476079 0.37902 0.595267
218 2 0.40013 0.407171 0.623687
254 2 0.507357 0.269483 0.608531
110 1 0.594658 0.389571 0.603111
222 2 0.622691 0.339991 0.624534
98 1 0.376812 0.525777 0.598185
226 2 0.405327 0.418363 0.628121
252 2 0.258175 0.468129 0.614245
220 2 0.373629 0.580518 0.622131
230 2 0.56476 0.388751 0.626205
256 2 0.515087 0.516953 0.608944
102 1 0.655454 0.535381 0.603588
224 2 0.647605 0.511866 0.628634
92 1 0.224582 0.60552 0.606809
100 1 0.377939 0.719047 0.614471
108 1 0.33367 0.635835 0.601717
228 2 0.31817 0.613438 0.624693
96 1 0.457214 0.681134 0.599891
232 2 0.496388 0.661038 0.623596
104 1 0.567216 0.711131 0.60565
112 1 0.613332 0.620936 0.616293
66 1 0.41541 0.236916 0.657696
74 1 0.389629 0.354838 0.649708
242 2 0.299211 0.296255 0.664939
258 2 0.270661 0.350124 0.638703
82 1 0.494092 0.407676 0.651751
246 2 0.556897 0.248515 0.662686
262 2 0.477284 0.276999 0.637126
70 1 0.643235 0.250293 0.644943
78 1 0.59555 0.351574 0.648474
86 1 0.703123 0.380538 0.642838
68 1 0.398538 0.47839 0.658894
244 2 0.310878 0.568609 0.669674
260 2 0.287985 0.504475 0.643675
248 2 0.521014 0.473419 0.675495
264 2 0.504967 0.535627 0.642687
72 1 0.635371 0.465219 0.652285
76 1 0.377369 0.606377 0.647733
84 1 0.494475 0.672553 0.647535
80 1 0.600907 0.630596 0.637958
88 1 0.695635 0.572941 0.646947
154 1 0.305699 0.359748 0.692625
158 1 0.544334 0.317896 0.683867
282 2 0.435773 0.345059 0.669212
298 2 0.436992 0.361144 0.696576
286 2 0.683922 0.31989 0.664783
302 2 0.653866 0.373047 0.69313
114 1 0.275618 0.417995 0.66151
156 1 0.27118 0.607584 0.692077
162 1 0.271925 0.485514 0.694974
118 1 0.578946 0.374799 0.665657
146 1 0.349214 0.445316 0.678765
160 1 0.536446 0.605684 0.684424
166 1 0.547033 0.447518 0.68589
284 2 0.455313 0.609111 0.666509
300 2 0.404415 0.548648 0.693782
150 1 0.661738 0.454348 0.673421
288 2 0.623955 0.577037 0.665718
304 2 0.651228 0.535738 0.69333
116 1 0.301581 0.683374 0.676353
164 1 0.307422 0.719175 0.693941
120 1 0.564314 0.680397 0.666517
148 1 0.408476 0.68897 0.685115
168 1 0.518157 0.712909 0.693154
152 1 0.633514 0.662204 0.686012