ITEM: TIMESTEP
0
ITEM: NUMBER OF ATOMS
312
ITEM: BOX BOUNDS pp pp pp
-4.9725650000000003e+00 1.4827434000000000e+01
-4.9725650000000003e+00 1.4827434000000000e+01
-2.6646452000000000e+01 7.9153550999999993e+01
ITEM: ATOMS id type xs ys zs
1 1 0.27702 0.278603 0.253645
185 2 0.375651 0.341929 0.251562
5 1 0.488533 0.297683 0.247644
189 2 0.591842 0.354656 0.253138
37 1 0.557033 0.251778 0.265079
3 1 0.29463 0.570596 0.246233
7 1 0.505123 0.52852 0.246373
39 1 0.581325 0.540242 0.26421
41 1 0.477025 0.417576 0.255606
45 1 0.666231 0.428986 0.265785
187 2 0.406701 0.604134 0.251129
191 2 0.549953 0.643953 0.25042
43 1 0.452829 0.708777 0.262192
33 1 0.342947 0.286531 0.271821
169 2 0.287943 0.327311 0.291627
49 1 0.463529 0.31763 0.272056
173 2 0.575363 0.28295 0.288874
177 2 0.447216 0.345029 0.296304
53 1 0.663114 0.306903 0.270564
181 2 0.690104 0.395372 0.288909
35 1 0.324025 0.538184 0.266736
171 2 0.292702 0.533156 0.292671
201 2 0.374021 0.424996 0.275563
51 1 0.455328 0.526802 0.268383
175 2 0.460615 0.525438 0.296516
179 2 0.465628 0.524822 0.297774
205 2 0.543787 0.428902 0.277334
55 1 0.690295 0.534396 0.274244
183 2 0.631163 0.544248 0.294441
203 2 0.379011 0.636497 0.278567
207 2 0.531605 0.644304 0.278443
47 1 0.642654 0.638997 0.267146
25 1 0.358509 0.283746 0.311406
17 1 0.483075 0.243415 0.307226
29 1 0.592917 0.258333 0.31352
9 1 0.449109 0.342884 0.323105
213 2 0.583146 0.398034 0.309676
21 1 0.687015 0.283925 0.301472
13 1 0.720831 0.376968 0.313273
61 1 0.6791 0.293979 0.326718
27 1 0.338802 0.54792 0.321544
209 2 0.340041 0.421133 0.310743
19 1 0.462879 0.567432 0.3213
31 1 0.598042 0.526617 0.319593
23 1 0.705639 0.492661 0.311556
211 2 0.380434 0.652328 0.30857
11 1 0.46194 0.693551 0.326773
215 2 0.543324 0.655813 0.308612
15 1 0.658661 0.621899 0.316755
233 2 0.301482 0.311221 0.334936
249 2 0.355432 0.292905 0.362119
57 1 0.420414 0.270575 0.34077
93 1 0.466708 0.373063 0.35225
237 2 0.567536 0.312847 0.335528
253 2 0.504509 0.250213 0.359416
193 2 0.365109 0.441418 0.337621
89 1 0.231183 0.41994 0.343314
105 1 0.337068 0.409445 0.35166
97 1 0.361552 0.53038 0.354051
235 2 0.246813 0.548672 0.339721
251 2 0.242907 0.485736 0.366032
109 1 0.594151 0.409461 0.353347
59 1 0.441657 0.555166 0.339117
239 2 0.518918 0.45869 0.334916
255 2 0.50625 0.526974 0.361004
197 2 0.67539 0.433778 0.333783
63 1 0.695816 0.553647 0.333662
101 1 0.634996 0.525309 0.351773
195 2 0.340106 0.666953 0.336464
91 1 0.21178 0.611859 0.360101
99 1 0.374334 0.716496 0.361704
107 1 0.315636 0.63632 0.352234
199 2 0.560354 0.612918 0.336931
95 1 0.453971 0.665701 0.348196
103 1 0.562749 0.705222 0.353815
111 1 0.607588 0.618122 0.365652
257 2 0.279143 0.346868 0.390151
73 1 0.401919 0.340832 0.3978
261 2 0.49855 0.261898 0.387739
77 1 0.592401 0.350944 0.39783
229 2 0.543529 0.390181 0.375554
69 1 0.630883 0.242565 0.394159
85 1 0.696296 0.395344 0.392855
221 2 0.622754 0.335611 0.374531
217 2 0.395511 0.424274 0.376415
225 2 0.382274 0.432642 0.374619
259 2 0.282438 0.504312 0.395583
219 2 0.358971 0.591413 0.375146
81 1 0.494992 0.41448 0.399801
263 2 0.494314 0.54145 0.391791
223 2 0.640018 0.506843 0.378381
87 1 0.679993 0.577214 0.396917
75 1 0.368412 0.613117 0.399278
227 2 0.31265 0.622073 0.376829
83 1 0.48092 0.682199 0.395526
231 2 0.488826 0.6699 0.37232
79 1 0.5899 0.63238 0.387054
241 2 0.318296 0.286329 0.414902
65 1 0.431143 0.237672 0.408343
245 2 0.55821 0.247871 0.413932
281 2 0.445738 0.36157 0.420004
117 1 0.577897 0.370994 0.418759
285 2 0.687004 0.316682 0.412554
67 1 0.398785 0.4809 0.409726
113 1 0.283145 0.408784 0.413439
243 2 0.314155 0.564538 0.421926
145 1 0.354454 0.447606 0.431665
247 2 0.526311 0.492363 0.420922
71 1 0.61903 0.472897 0.403012
287 2 0.662809 0.572556 0.419833
149 1 0.667563 0.44496 0.423135
115 1 0.294971 0.676673 0.429269
283 2 0.447181 0.625615 0.415262
119 1 0.546712 0.703505 0.412384
159 1 0.555078 0.625247 0.428025
153 1 0.279973 0.35287 0.434865
273 2 0.269043 0.345741 0.459666
157 1 0.524803 0.30426 0.435446
277 2 0.535725 0.287971 0.459681
297 2 0.400089 0.329213 0.445941
301 2 0.641862 0.354226 0.44115
155 1 0.267129 0.593379 0.44393
161 1 0.25242 0.45603 0.445487
265 2 0.346314 0.479006 0.461365
275 2 0.337549 0.500247 0.461489
165 1 0.546966 0.436569 0.433851
269 2 0.513904 0.45325 0.458973
279 2 0.514178 0.452633 0.462467
299 2 0.444708 0.56954 0.442213
303 2 0.641652 0.510031 0.445473
163 1 0.289366 0.710997 0.443078
267 2 0.349389 0.6573 0.460013
147 1 0.4015 0.694789 0.437136
167 1 0.518084 0.692079 0.44404
271 2 0.547512 0.622636 0.462434
151 1 0.639168 0.639823 0.442427
121 1 0.281176 0.37621 0.484041
2 1 0.343765 0.297299 0.497105
125 1 0.551169 0.298272 0.483765
305 2 0.404436 0.344977 0.475751
309 2 0.648426 0.368351 0.471936
6 1 0.610467 0.222154 0.496192
123 1 0.27841 0.590882 0.480091
129 1 0.324689 0.487088 0.485792
127 1 0.54529 0.564205 0.491115
133 1 0.558832 0.435244 0.485359
137 1 0.443231 0.452642 0.490967
307 2 0.423956 0.579808 0.481368
141 1 0.687567 0.441906 0.492262
311 2 0.649389 0.524445 0.4744
131 1 0.286839 0.706847 0.478709
139 1 0.399141 0.71217 0.480987
135 1 0.51508 0.682646 0.482837
143 1 0.628312 0.645363 0.483471
34 1 0.362965 0.326026 0.520539
289 2 0.471322 0.325351 0.502244
38 1 0.568338 0.245134 0.516136
50 1 0.472023 0.287724 0.525877
293 2 0.642904 0.333405 0.503347
54 1 0.669653 0.295079 0.525928
46 1 0.719911 0.397796 0.522139
4 1 0.222672 0.597755 0.500191
36 1 0.294478 0.541768 0.513404
186 2 0.342245 0.42047 0.504284
202 2 0.336929 0.458474 0.53271
291 2 0.43386 0.552236 0.512548
8 1 0.558718 0.445318 0.505774
40 1 0.568871 0.54406 0.518836
42 1 0.455469 0.413725 0.519485
52 1 0.445583 0.536495 0.52488
190 2 0.559244 0.445788 0.500674
206 2 0.5864 0.416196 0.528601
295 2 0.666303 0.560964 0.502525
56 1 0.690925 0.517128 0.525209
188 2 0.329986 0.657467 0.500154
204 2 0.350896 0.635177 0.530404
44 1 0.433789 0.706745 0.514283
192 2 0.558151 0.670777 0.505602
208 2 0.509662 0.652152 0.532383
48 1 0.6436 0.633077 0.523995
26 1 0.367961 0.27712 0.562913
170 2 0.300104 0.31325 0.542511
18 1 0.489854 0.248518 0.558456
174 2 0.572457 0.277426 0.540849
178 2 0.448541 0.348944 0.545489
30 1 0.612749 0.25105 0.562733
22 1 0.721037 0.297525 0.560457
182 2 0.705024 0.389911 0.545973
172 2 0.278445 0.559657 0.554926
210 2 0.333986 0.415995 0.563664
176 2 0.462747 0.515349 0.548657
180 2 0.447997 0.535157 0.549491
214 2 0.574864 0.403702 0.560736
24 1 0.701972 0.497088 0.561555
184 2 0.623219 0.545438 0.544845
212 2 0.390447 0.665565 0.562155
216 2 0.549127 0.656507 0.561186
234 2 0.285875 0.292204 0.583969
106 1 0.34943 0.388364 0.599805
10 1 0.460022 0.341374 0.57211
58 1 0.410667 0.265306 0.588352
238 2 0.57208 0.29323 0.583632
94 1 0.480501 0.369136 0.594948
14 1 0.700801 0.394986 0.572454
62 1 0.688872 0.282259 0.578615
28 1 0.367996 0.552308 0.574681
194 2 0.351263 0.407383 0.593634
236 2 0.249448 0.524244 0.583863
90 1 0.220475 0.402116 0.590854
98 1 0.380559 0.530387 0.596909
20 1 0.47621 0.599185 0.579393
32 1 0.589715 0.530067 0.571298
60 1 0.470872 0.588385 0.587759
240 2 0.470993 0.472854 0.578742
110 1 0.597669 0.411752 0.599464
198 2 0.612903 0.429121 0.591205
64 1 0.695899 0.509581 0.581706
196 2 0.32903 0.652405 0.593961
12 1 0.474877 0.719327 0.577051
200 2 0.587564 0.630288 0.588957
96 1 0.456994 0.691412 0.597847
16 1 0.668269 0.611855 0.567896
250 2 0.344737 0.274115 0.611111
254 2 0.496522 0.251171 0.607141
230 2 0.56662 0.384263 0.622125
222 2 0.601457 0.360274 0.621655
252 2 0.260544 0.474245 0.612804
220 2 0.375838 0.58511 0.621108
218 2 0.40306 0.406928 0.622978
226 2 0.409842 0.418894 0.626513
256 2 0.518317 0.525629 0.60769
102 1 0.656433 0.535003 0.602303
224 2 0.648634 0.515221 0.627527
92 1 0.219338 0.600664 0.603943
100 1 0.381786 0.719924 0.614344
108 1 0.331925 0.639881 0.601225
228 2 0.303157 0.623385 0.623701
232 2 0.50165 0.670824 0.622212
104 1 0.570019 0.720296 0.60475
112 1 0.617182 0.625927 0.61473
242 2 0.308097 0.308456 0.665072
258 2 0.277496 0.351142 0.638109
66 1 0.417935 0.239557 0.655864
74 1 0.400651 0.359544 0.648603
246 2 0.559281 0.243279 0.659684
262 2 0.475357 0.274539 0.634734
78 1 0.575933 0.35319 0.646391
118 1 0.579585 0.371108 0.66508
70 1 0.654985 0.267168 0.643805
86 1 0.6858 0.381539 0.640702
286 2 0.67784 0.323312 0.665022
68 1 0.39342 0.478861 0.658561
260 2 0.291627 0.505756 0.642198
114 1 0.264726 0.422467 0.660117
82 1 0.498825 0.43307 0.653534
264 2 0.503451 0.540236 0.639595
72 1 0.620529 0.467931 0.650924
88 1 0.689988 0.569916 0.647065
288 2 0.607957 0.579689 0.6642
76 1 0.376434 0.607535 0.646486
84 1 0.502058 0.669565 0.647405
284 2 0.452988 0.600267 0.66565
80 1 0.604325 0.633411 0.63649
154 1 0.303809 0.35728 0.695115
158 1 0.545083 0.305888 0.682912
282 2 0.448308 0.344842 0.667394
298 2 0.436038 0.364949 0.695195
302 2 0.644162 0.374073 0.692752
244 2 0.308786 0.564078 0.668904
156 1 0.261052 0.595152 0.690544
162 1 0.274208 0.479756 0.696162
146 1 0.342776 0.431975 0.677953
248 2 0.521521 0.470477 0.678211
166 1 0.540479 0.45165 0.685791
300 2 0.402374 0.541155 0.693811
150 1 0.654724 0.456035 0.672189
304 2 0.648553 0.538051 0.691876
116 1 0.303096 0.67713 0.676885
160 1 0.523373 0.618916 0.685432
120 1 0.542483 0.693909 0.668473
148 1 0.408043 0.67599 0.686277
168 1 0.504529 0.720102 0.696909
152 1 0.631382 0.657376 0.683139
274 2 0.356673 0.284764 0.713811
278 2 0.544316 0.278274 0.709721
306 2 0.462129 0.362671 0.729207
310 2 0.638818 0.364162 0.726439
266 2 0.340546 0.439506 0.714872
276 2 0.292546 0.575659 0.713739
270 2 0.546941 0.455599 0.709769
280 2 0.531468 0.469849 0.710187
308 2 0.436703 0.549824 0.72738
312 2 0.667857 0.523911 0.723223
164 1 0.303654 0.689905 0.700355
132 1 0.292567 0.692634 0.72244
268 2 0.412728 0.67906 0.711631
136 1 0.499615 0.675396 0.730819
272 2 0.558315 0.626932 0.71043
144 1 0.617396 0.645174 0.732077
122 1 0.327778 0.358493 0.73402
290 2 0.393591 0.379046 0.75395
126 1 0.557988 0.271236 0.734741
294 2 0.555538 0.367878 0.751402
130 1 0.335766 0.4829 0.739474
292 2 0.392487 0.595626 0.75358
128 1 0.518883 0.590983 0.746356
134 1 0.557148 0.476653 0.737469
138 1 0.45427 0.485421 0.750017
142 1 0.66529 0.442744 0.745405
296 2 0.640291 0.564772 0.749466
124 1 0.298989 0.600078 0.737674
140 1 0.385374 0.683496 0.73603
ITEM: TIMESTEP
100
ITEM: NUMBER OF ATOMS
312
ITEM: BOX BOUNDS pp pp pp
-4.9725650000000003e+00 1.4827434000000000e+01
-4.9725650000000003e+00 1.4827434000000000e+01
-2.6646452000000000e+01 7.9153550999999993e+01
ITEM: ATOMS id type xs ys zs
1 1 0.277315 0.275359 0.254259
185 2 0.374826 0.340662 0.251511
5 1 0.487661 0.294955 0.247742
189 2 0.590534 0.354555 0.252845
37 1 0.558118 0.251807 0.264945
3 1 0.296305 0.571163 0.24588
7 1 0.505699 0.528131 0.246204
39 1 0.584066 0.537867 0.263783
41 1 0.475641 0.416241 0.255358
45 1 0.66274 0.431915 0.26517
187 2 0.407478 0.604431 0.25109
191 2 0.550951 0.643285 0.250502
43 1 0.454173 0.708357 0.262375
33 1 0.344188 0.28652 0.272092
169 2 0.287291 0.329527 0.29154
49 1 0.463932 0.317726 0.271858
173 2 0.57442 0.28379 0.28861
177 2 0.447757 0.345213 0.29619
53 1 0.662729 0.310855 0.270269
181 2 0.690173 0.398154 0.288718
35 1 0.323728 0.538392 0.26649
171 2 0.291605 0.531261 0.292474
201 2 0.374455 0.424868 0.275381
51 1 0.456616 0.52605 0.267937
175 2 0.452869 0.52721 0.294511
179 2 0.474884 0.521363 0.299948
205 2 0.543145 0.428858 0.277256
55 1 0.693688 0.531237 0.274849
183 2 0.631274 0.544405 0.29461
203 2 0.379054 0.636221 0.278481
207 2 0.532411 0.643335 0.278428
47 1 0.643964 0.635786 0.267454
25 1 0.356749 0.284423 0.310888
17 1 0.481156 0.243197 0.306766
29 1 0.589789 0.258501 0.313385
9 1 0.448685 0.341222 0.32284
213 2 0.5832 0.397563 0.309548
21 1 0.683707 0.285383 0.3011
13 1 0.720584 0.372314 0.313694
61 1 0.680841 0.281765 0.326107
27 1 0.341216 0.547204 0.321738
209 2 0.340528 0.420772 0.310861
19 1 0.462621 0.5678 0.322032
31 1 0.600614 0.525404 0.319737
23 1 0.706118 0.486322 0.311109
211 2 0.380836 0.651832 0.308478
11 1 0.458266 0.693597 0.326627
215 2 0.542808 0.657255 0.308565
15 1 0.656823 0.62324 0.316679
233 2 0.305965 0.313801 0.334912
249 2 0.359231 0.291234 0.362816
57 1 0.4246 0.27157 0.341057
93 1 0.460226 0.375462 0.352856
237 2 0.571783 0.315501 0.335535
253 2 0.505328 0.250293 0.35942
193 2 0.367357 0.443009 0.33736
89 1 0.232879 0.421206 0.342868
105 1 0.333266 0.412313 0.352578
97 1 0.361442 0.533443 0.353851
235 2 0.250338 0.550668 0.339243
251 2 0.243507 0.485833 0.366117
109 1 0.594907 0.417757 0.354227
59 1 0.448409 0.549953 0.338836
239 2 0.516434 0.456251 0.334798
255 2 0.505613 0.525668 0.361085
197 2 0.671251 0.432914 0.333805
63 1 0.696247 0.553284 0.333426
101 1 0.637784 0.529976 0.351898
195 2 0.335158 0.661551 0.335204
91 1 0.207449 0.606609 0.360341
99 1 0.382304 0.724369 0.362611
107 1 0.311001 0.641201 0.353555
199 2 0.559211 0.616627 0.336839
95 1 0.450316 0.664392 0.34802
103 1 0.562139 0.705681 0.353777
111 1 0.606812 0.61859 0.365739
257 2 0.278678 0.34812 0.390118
73 1 0.402026 0.337725 0.39659
261 2 0.499615 0.259637 0.387631
77 1 0.589268 0.352352 0.397499
229 2 0.54213 0.389437 0.375565
69 1 0.632567 0.24381 0.39429
85 1 0.694134 0.39673 0.392655
221 2 0.621494 0.335998 0.374292
217 2 0.395745 0.425032 0.376574
225 2 0.382479 0.432993 0.374647
259 2 0.282265 0.504347 0.395583
219 2 0.358902 0.591858 0.375536
81 1 0.489057 0.415398 0.399134
263 2 0.494011 0.541956 0.391526
223 2 0.639232 0.505543 0.37825
87 1 0.677114 0.576557 0.396945
75 1 0.367045 0.616222 0.399387
227 2 0.311245 0.622354 0.377516
83 1 0.478334 0.683392 0.395341
231 2 0.488444 0.670308 0.37217
79 1 0.588432 0.632949 0.38701
241 2 0.319756 0.288131 0.415156
65 1 0.431986 0.239881 0.408241
245 2 0.558891 0.248539 0.413898
281 2 0.447336 0.363314 0.420034
117 1 0.579494 0.371507 0.419488
285 2 0.687067 0.318209 0.412486
67 1 0.400374 0.483813 0.410746
113 1 0.283282 0.409996 0.413559
243 2 0.314092 0.564945 0.421977
145 1 0.353917 0.445976 0.43146
247 2 0.527054 0.493923 0.420743
71 1 0.619094 0.472351 0.403276
287 2 0.663398 0.572365 0.419965
149 1 0.670278 0.444452 0.423185
115 1 0.293808 0.674791 0.430821
283 2 0.447001 0.626568 0.415264
119 1 0.54271 0.709096 0.412145
159 1 0.55613 0.628808 0.42738
153 1 0.272104 0.357178 0.43505
273 2 0.267873 0.348023 0.459783
157 1 0.524004 0.30178 0.435495
277 2 0.534339 0.287922 0.459659
297 2 0.397313 0.328481 0.445615
301 2 0.642046 0.352927 0.441216
155 1 0.26849 0.585841 0.444299
161 1 0.250855 0.459766 0.445816
265 2 0.346909 0.479794 0.461438
275 2 0.338807 0.499772 0.461729
165 1 0.545089 0.43154 0.434176
269 2 0.513559 0.452193 0.458987
279 2 0.513942 0.451596 0.462406
299 2 0.445288 0.56887 0.442232
303 2 0.641412 0.508944 0.445506
163 1 0.286821 0.705147 0.443234
267 2 0.349422 0.655982 0.460073
147 1 0.401609 0.694094 0.437653
167 1 0.519064 0.690655 0.44413
271 2 0.547648 0.622062 0.462621
151 1 0.638192 0.638498 0.442509
121 1 0.28054 0.376241 0.484482
2 1 0.343238 0.297496 0.497327
125 1 0.550503 0.295916 0.483703
305 2 0.402935 0.344681 0.475774
309 2 0.648605 0.367844 0.471781
6 1 0.611155 0.220675 0.496027
123 1 0.281786 0.590778 0.479471
129 1 0.325887 0.486096 0.485979
127 1 0.545856 0.565216 0.491206
133 1 0.559457 0.428866 0.485806
137 1 0.444532 0.450962 0.491658
307 2 0.424717 0.579733 0.481608
141 1 0.686957 0.441647 0.492407
311 2 0.649739 0.524563 0.474595
131 1 0.288166 0.707872 0.478878
139 1 0.400118 0.712487 0.4809
135 1 0.515404 0.68338 0.48304
143 1 0.628649 0.646207 0.483775
34 1 0.364888 0.326154 0.520925
289 2 0.470555 0.325804 0.502041
38 1 0.569436 0.244699 0.51594
50 1 0.476851 0.292684 0.525748
293 2 0.641858 0.332918 0.502949
54 1 0.670432 0.295758 0.525597
46 1 0.715001 0.400363 0.521286
4 1 0.225262 0.597867 0.499092
36 1 0.296945 0.537853 0.512139
186 2 0.342626 0.420686 0.504701
202 2 0.334876 0.456862 0.532986
291 2 0.435868 0.552205 0.512441
8 1 0.560494 0.447009 0.506065
40 1 0.570195 0.543027 0.519412
42 1 0.454383 0.41576 0.519357
52 1 0.447087 0.537651 0.525044
190 2 0.560559 0.448287 0.501336
206 2 0.584552 0.414891 0.528838
295 2 0.665347 0.561386 0.502745
56 1 0.691963 0.518193 0.525593
188 2 0.330979 0.657614 0.500235
204 2 0.349064 0.630702 0.530538
44 1 0.430891 0.705544 0.515442
192 2 0.556766 0.670742 0.50593
208 2 0.508212 0.651834 0.532857
48 1 0.641782 0.633831 0.524446
26 1 0.36846 0.277518 0.562821
170 2 0.299423 0.314174 0.542606
18 1 0.490945 0.247593 0.558126
174 2 0.574945 0.276009 0.540918
178 2 0.448308 0.349229 0.545589
30 1 0.612522 0.250018 0.563156
22 1 0.718604 0.298523 0.55986
182 2 0.705534 0.392127 0.545673
172 2 0.279411 0.561248 0.55502
210 2 0.332337 0.416038 0.563735
176 2 0.462564 0.511441 0.54863
180 2 0.4469 0.53327 0.54955
214 2 0.575669 0.401232 0.560996
24 1 0.702526 0.497544 0.561714
184 2 0.623528 0.54507 0.545042
212 2 0.391197 0.667925 0.561733
216 2 0.54952 0.656499 0.561559
234 2 0.286726 0.290619 0.583542
106 1 0.343601 0.390022 0.599996
10 1 0.463411 0.336963 0.572074
58 1 0.409911 0.26166 0.588276
238 2 0.573064 0.294459 0.584048
94 1 0.475411 0.364812 0.594835
14 1 0.701808 0.395197 0.572267
62 1 0.689755 0.282371 0.578807
28 1 0.380665 0.554168 0.573415
194 2 0.352905 0.406357 0.593906
236 2 0.252451 0.526935 0.58378
90 1 0.229251 0.403996 0.590956
98 1 0.378209 0.53014 0.597274
20 1 0.474695 0.611699 0.584505
32 1 0.586956 0.530676 0.571433
60 1 0.474387 0.591993 0.587479
240 2 0.471965 0.468118 0.579206
110 1 0.598503 0.415215 0.598652
198 2 0.613394 0.429229 0.590795
64 1 0.699071 0.509347 0.581918
196 2 0.331413 0.648727 0.593844
12 1 0.470827 0.725343 0.576485
200 2 0.595103 0.628409 0.589183
96 1 0.458965 0.695264 0.598145
16 1 0.669854 0.609906 0.568052
250 2 0.343573 0.270477 0.610999
254 2 0.49563 0.248382 0.606861
230 2 0.565863 0.384341 0.621347
222 2 0.591573 0.36766 0.621315
252 2 0.260994 0.479191 0.613426
220 2 0.376805 0.585552 0.620583
218 2 0.405631 0.391234 0.62144
226 2 0.412664 0.431032 0.627715
256 2 0.516676 0.524641 0.607532
102 1 0.658859 0.531548 0.602257
224 2 0.649475 0.513794 0.627545
92 1 0.213979 0.59929 0.603258
100 1 0.386403 0.712771 0.615258
108 1 0.322672 0.644546 0.601284
228 2 0.296515 0.625794 0.623574
232 2 0.504203 0.670829 0.622015
104 1 0.571097 0.72045 0.604279
112 1 0.618878 0.624606 0.614323
242 2 0.308768 0.310143 0.665029
258 2 0.278571 0.352203 0.637849
66 1 0.418189 0.243497 0.656047
74 1 0.4019 0.361184 0.648742
246 2 0.55972 0.24605 0.659185
262 2 0.473848 0.273347 0.634634
78 1 0.572629 0.352175 0.645966
118 1 0.577217 0.372942 0.668065
70 1 0.653308 0.265627 0.643836
86 1 0.679921 0.387246 0.638299
286 2 0.678036 0.326898 0.664978
68 1 0.392129 0.478178 0.658243
260 2 0.293702 0.505674 0.641708
114 1 0.262875 0.423297 0.659672
82 1 0.500266 0.43579 0.653991
264 2 0.503118 0.53962 0.639199
72 1 0.620887 0.461793 0.652043
88 1 0.689584 0.567941 0.64717
288 2 0.608087 0.580048 0.664214
76 1 0.375039 0.607671 0.646015
84 1 0.505406 0.668705 0.64743
284 2 0.451433 0.600709 0.665622
80 1 0.605645 0.631722 0.636232
154 1 0.305362 0.356944 0.695207
158 1 0.549882 0.291807 0.682687
282 2 0.449805 0.348349 0.667987
298 2 0.437876 0.369209 0.694831
302 2 0.643891 0.373695 0.692597
244 2 0.307799 0.563406 0.668659
156 1 0.256424 0.592004 0.690126
162 1 0.274807 0.478531 0.696314
146 1 0.343146 0.430666 0.677789
248 2 0.519023 0.473226 0.678228
166 1 0.535253 0.464795 0.685302
300 2 0.402305 0.539581 0.693751
150 1 0.656938 0.455895 0.672794
304 2 0.648086 0.536925 0.69183
116 1 0.301557 0.675387 0.676924
160 1 0.524674 0.617184 0.685352
120 1 0.540248 0.692449 0.668287
148 1 0.406489 0.674492 0.686478
168 1 0.502623 0.720094 0.697097
152 1 0.63233 0.657594 0.682883
274 2 0.358806 0.285806 0.713614
278 2 0.543485 0.278792 0.709528
306 2 0.46212 0.361798 0.729332
310 2 0.639132 0.362975 0.726493
266 2 0.340943 0.439545 0.715054
276 2 0.292074 0.577043 0.713426
270 2 0.545597 0.454917 0.709324
280 2 0.529275 0.469912 0.709824
308 2 0.436323 0.550649 0.727466
312 2 0.668137 0.523856 0.723233
164 1 0.300498 0.687141 0.700261
132 1 0.294349 0.695014 0.722574
268 2 0.411835 0.678529 0.71174
136 1 0.499928 0.674402 0.730987
272 2 0.558042 0.627254 0.710442
144 1 0.617879 0.644141 0.732088
122 1 0.329063 0.359262 0.73414
290 2 0.394416 0.380523 0.754088
126 1 0.55679 0.270651 0.734758
294 2 0.555624 0.366639 0.751522
130 1 0.341145 0.483424 0.741023
292 2 0.390625 0.594646 0.753594
128 1 0.518689 0.591228 0.746656
134 1 0.558968 0.473507 0.737342
138 1 0.458836 0.48674 0.7508
142 1 0.666549 0.441319 0.745553
296 2 0.640171 0.564041 0.749491
124 1 0.297881 0.597965 0.737101
140 1 0.385594 0.682551 0.736294
ITEM: TIMESTEP
200
ITEM: NUMBER OF ATOMS
312
ITEM: BOX BOUNDS pp pp pp
-4.9725650000000003e+00 1.4827434000000000e+01
-4.9725650000000003e+00 1.4827434000000000e+01
-2.6646452000000000e+01 7.9153550999999993e+01
ITEM: ATOMS id type xs ys zs
1 1 0.278723 0.265866 0.255801
185 2 0.371742 0.33405 0.251249
5 1 0.484199 0.290262 0.247819
189 2 0.585866 0.354315 0.251724
37 1 0.56121 0.250731 0.26435
3 1 0.299929 0.572263 0.244803
7 1 0.50683 0.526962 0.245984
39 1 0.586255 0.535182 0.263192
41 1 0.471434 0.414396 0.254496
45 1 0.659518 0.434959 0.264084
187 2 0.41034 0.606257 0.250636
191 2 0.556019 0.640277 0.250781
43 1 0.458448 0.707446 0.262365
33 1 0.348794 0.286165 0.273163
169 2 0.28314 0.337865 0.291022
49 1 0.466652 0.316597 0.271031
173 2 0.570478 0.286183 0.287785
177 2 0.445278 0.34488 0.295491
53 1 0.658611 0.318966 0.269831
181 2 0.691224 0.405821 0.288193
35 1 0.324845 0.538628 0.265392
171 2 0.286557 0.52634 0.291494
201 2 0.372 0.423579 0.273676
51 1 0.455693 0.524911 0.267217
175 2 0.455833 0.523923 0.29478
179 2 0.483539 0.512742 0.301944
205 2 0.543063 0.428951 0.276397
55 1 0.701056 0.524762 0.275644
183 2 0.633262 0.547236 0.295115
203 2 0.378374 0.635586 0.277892
207 2 0.534002 0.638703 0.278545
47 1 0.648627 0.62749 0.26908
25 1 0.354023 0.284688 0.310302
17 1 0.474395 0.241033 0.305667
29 1 0.581505 0.258561 0.313001
9 1 0.45125 0.333268 0.322267
213 2 0.585691 0.395073 0.309316
21 1 0.675878 0.287457 0.300584
13 1 0.717928 0.358508 0.315559
61 1 0.676075 0.266021 0.326338
27 1 0.33416 0.546914 0.320205
209 2 0.342907 0.419576 0.311013
19 1 0.455924 0.580578 0.322983
31 1 0.607994 0.526039 0.31967
23 1 0.704762 0.467606 0.310073
211 2 0.381693 0.649327 0.306756
11 1 0.456084 0.699294 0.326783
215 2 0.539911 0.663861 0.30863
15 1 0.649516 0.633021 0.317818
233 2 0.317703 0.314851 0.335521
249 2 0.364309 0.290046 0.364009
57 1 0.432175 0.273075 0.341667
93 1 0.465692 0.381309 0.353654
237 2 0.578067 0.311526 0.336311
253 2 0.512031 0.24895 0.359332
193 2 0.368321 0.45002 0.33783
89 1 0.236455 0.421886 0.341755
105 1 0.334747 0.412696 0.353377
97 1 0.364467 0.545042 0.353815
235 2 0.248282 0.549938 0.340521
251 2 0.245384 0.484807 0.366396
109 1 0.596872 0.429997 0.354313
59 1 0.45595 0.54762 0.338477
239 2 0.514119 0.454805 0.333588
255 2 0.507293 0.527659 0.3605
197 2 0.671549 0.43585 0.334387
63 1 0.700775 0.556343 0.332653
101 1 0.646698 0.540131 0.351981
195 2 0.335174 0.665142 0.333214
91 1 0.203046 0.603612 0.361065
99 1 0.3701 0.714322 0.364712
107 1 0.301335 0.645483 0.354425
199 2 0.559026 0.619426 0.336825
95 1 0.438708 0.654871 0.348048
103 1 0.554039 0.707694 0.353295
111 1 0.604933 0.622399 0.365873
257 2 0.276678 0.350367 0.390869
73 1 0.399162 0.316614 0.394413
261 2 0.504284 0.249152 0.387199
77 1 0.580611 0.356252 0.39734
229 2 0.53918 0.386533 0.375245
69 1 0.635146 0.251494 0.394011
85 1 0.688904 0.396182 0.392164
221 2 0.619422 0.338999 0.373644
217 2 0.393086 0.432495 0.376677
225 2 0.384525 0.437117 0.37535
259 2 0.281642 0.505578 0.396273
219 2 0.356101 0.596869 0.375836
81 1 0.469657 0.41244 0.397049
263 2 0.491108 0.544277 0.391135
223 2 0.638593 0.502394 0.377617
87 1 0.67119 0.575496 0.396924
75 1 0.36467 0.617933 0.399754
227 2 0.304322 0.625863 0.377706
83 1 0.472882 0.684375 0.394881
231 2 0.488325 0.670644 0.371746
79 1 0.584896 0.635077 0.387158
241 2 0.322955 0.294709 0.416453
65 1 0.43512 0.234976 0.409089
245 2 0.560831 0.2516 0.413804
281 2 0.454318 0.3686 0.419501
117 1 0.585486 0.372343 0.421645
285 2 0.687591 0.324024 0.412312
67 1 0.401348 0.493819 0.410833
113 1 0.281139 0.413966 0.414009
243 2 0.312469 0.568921 0.422592
145 1 0.348883 0.447631 0.43204
247 2 0.530635 0.499156 0.42
71 1 0.620668 0.472114 0.403551
287 2 0.666327 0.572229 0.420385
149 1 0.676281 0.44464 0.423511
115 1 0.292883 0.672943 0.436348
283 2 0.44588 0.629948 0.415435
119 1 0.529589 0.722539 0.412034
159 1 0.559844 0.636809 0.425879
153 1 0.261836 0.360226 0.434922
273 2 0.263181 0.354884 0.460258
157 1 0.522181 0.296367 0.43553
277 2 0.528438 0.287116 0.459393
297 2 0.386784 0.326222 0.444315
301 2 0.644352 0.347291 0.441688
155 1 0.268816 0.573193 0.445688
161 1 0.247423 0.458859 0.446579
265 2 0.348203 0.482918 0.462098
275 2 0.343183 0.496266 0.46226
165 1 0.540638 0.422169 0.435467
269 2 0.512703 0.44864 0.459381
279 2 0.513086 0.447617 0.46283
299 2 0.449435 0.566915 0.442137
303 2 0.639036 0.50489 0.445705
163 1 0.282534 0.688238 0.442924
267 2 0.350727 0.653291 0.459889
147 1 0.403757 0.692678 0.438093
167 1 0.5211 0.686665 0.444197
271 2 0.548031 0.619321 0.463158
151 1 0.635762 0.636599 0.442473
121 1 0.279809 0.376827 0.485166
2 1 0.343644 0.296589 0.497958
125 1 0.548476 0.286848 0.483081
305 2 0.398667 0.344573 0.475768
309 2 0.649612 0.365552 0.471568
6 1 0.61167 0.214939 0.49563
123 1 0.285564 0.588337 0.478939
129 1 0.329462 0.485832 0.486885
127 1 0.547246 0.566589 0.491224
133 1 0.557828 0.420884 0.486163
137 1 0.446247 0.452619 0.492393
307 2 0.427061 0.57947 0.48218
141 1 0.689011 0.442952 0.49388
311 2 0.649628 0.522763 0.475427
131 1 0.290827 0.706216 0.479015
139 1 0.402619 0.711697 0.481014
135 1 0.517055 0.683475 0.483626
143 1 0.629378 0.64669 0.48445
34 1 0.370309 0.326601 0.522
289 2 0.47311 0.326505 0.501707
38 1 0.573319 0.242928 0.515744
50 1 0.491258 0.305908 0.525227
293 2 0.636301 0.331448 0.501644
54 1 0.673884 0.298118 0.524387
46 1 0.709668 0.405811 0.519425
4 1 0.226553 0.596576 0.497406
36 1 0.297032 0.537383 0.510895
186 2 0.342435 0.418286 0.505018
202 2 0.331015 0.456303 0.533127
291 2 0.439052 0.551954 0.512697
8 1 0.562294 0.451879 0.506142
40 1 0.572195 0.542627 0.52093
42 1 0.456465 0.418201 0.518333
52 1 0.44707 0.533801 0.525551
190 2 0.561473 0.453559 0.502987
206 2 0.578423 0.410895 0.529327
295 2 0.664885 0.564423 0.5037
56 1 0.695115 0.522628 0.526688
188 2 0.333842 0.65817 0.500399
204 2 0.344602 0.620844 0.530341
44 1 0.428834 0.7043 0.516225
192 2 0.553797 0.670893 0.507065
208 2 0.503945 0.650511 0.53438
48 1 0.639506 0.636974 0.525421
26 1 0.368155 0.273657 0.562424
170 2 0.29682 0.313582 0.542959
18 1 0.492072 0.242258 0.556877
174 2 0.587316 0.271238 0.541122
178 2 0.446549 0.348409 0.545887
30 1 0.609917 0.246128 0.564116
22 1 0.708241 0.301188 0.558083
182 2 0.706345 0.400279 0.544183
172 2 0.283638 0.565419 0.555602
210 2 0.330949 0.416291 0.564218
176 2 0.462814 0.510484 0.549423
180 2 0.451609 0.527346 0.550145
214 2 0.579433 0.395486 0.560874
24 1 0.706775 0.495923 0.561712
184 2 0.621267 0.54453 0.546091
212 2 0.393792 0.669829 0.559867
216 2 0.543011 0.651846 0.564476
234 2 0.288473 0.290342 0.582548
106 1 0.334466 0.38333 0.599949
10 1 0.465497 0.326822 0.572285
58 1 0.410436 0.249649 0.587709
238 2 0.578661 0.291518 0.585129
94 1 0.475032 0.356889 0.595206
14 1 0.705113 0.394155 0.571685
62 1 0.694609 0.282502 0.579039
28 1 0.380616 0.563836 0.574958
194 2 0.348669 0.401122 0.594019
236 2 0.262506 0.527708 0.583984
90 1 0.224402 0.405924 0.589159
98 1 0.390393 0.531882 0.596411
20 1 0.487373 0.617467 0.586699
32 1 0.580534 0.530357 0.572712
60 1 0.486876 0.612874 0.587516
240 2 0.471245 0.457551 0.579189
110 1 0.593372 0.424008 0.596612
198 2 0.61797 0.429837 0.589854
64 1 0.701021 0.508263 0.581343
196 2 0.333497 0.655555 0.594097
12 1 0.458603 0.716267 0.578158
200 2 0.612201 0.621271 0.589926
96 1 0.462215 0.715731 0.599266
16 1 0.671138 0.603777 0.568104
250 2 0.334704 0.253606 0.609555
254 2 0.493727 0.238834 0.606917
230 2 0.562666 0.386185 0.617186
222 2 0.560711 0.388196 0.621627
252 2 0.264044 0.481959 0.61309
220 2 0.381697 0.589262 0.620268
218 2 0.407224 0.387093 0.622057
226 2 0.413895 0.432929 0.62801
256 2 0.520638 0.52972 0.606763
102 1 0.668873 0.526045 0.602453
224 2 0.652852 0.511148 0.627544
92 1 0.21299 0.597334 0.602302
100 1 0.376908 0.717785 0.615393
108 1 0.317914 0.643645 0.601354
228 2 0.276819 0.636986 0.622368
232 2 0.512896 0.670806 0.621444
104 1 0.585912 0.719496 0.603923
112 1 0.624087 0.620551 0.613728
242 2 0.309879 0.315473 0.664782
258 2 0.2806 0.351257 0.637592
66 1 0.417477 0.242653 0.656305
74 1 0.404989 0.357978 0.648388
246 2 0.559258 0.248803 0.659034
262 2 0.473544 0.267233 0.634317
78 1 0.575656 0.353853 0.644114
118 1 0.579377 0.366266 0.671965
70 1 0.66093 0.271962 0.644658
86 1 0.673171 0.383043 0.634571
286 2 0.673294 0.340402 0.663943
68 1 0.398345 0.481063 0.656498
260 2 0.294424 0.508976 0.641103
114 1 0.261455 0.425961 0.658908
82 1 0.509659 0.433389 0.654551
264 2 0.509322 0.542304 0.639783
72 1 0.630359 0.457584 0.651811
88 1 0.694925 0.560551 0.647587
288 2 0.607349 0.579383 0.663768
76 1 0.372652 0.610726 0.645577
84 1 0.5122 0.669155 0.647369
284 2 0.448881 0.602895 0.66519
80 1 0.614273 0.628661 0.635762
154 1 0.306943 0.358047 0.694969
158 1 0.556028 0.266558 0.683241
282 2 0.450984 0.347354 0.668263
298 2 0.438195 0.36927 0.694289
302 2 0.634364 0.370604 0.692159
244 2 0.304895 0.561188 0.668085
156 1 0.248749 0.588324 0.689501
162 1 0.275414 0.477136 0.696452
146 1 0.339347 0.433903 0.676964
248 2 0.518013 0.479889 0.678028
166 1 0.534469 0.498055 0.685147
300 2 0.397581 0.541541 0.693728
150 1 0.661591 0.462264 0.672686
304 2 0.649897 0.541267 0.692666
116 1 0.29604 0.671305 0.67718
160 1 0.522446 0.61807 0.685695
120 1 0.539993 0.691783 0.668666
148 1 0.401859 0.671154 0.686278
168 1 0.498443 0.717562 0.696785