ITEM: TIMESTEP
0
ITEM: NUMBER OF ATOMS
3000
ITEM: BOX BOUNDS pp pp pp
2.9262500000000000e+00 3.0126251000000000e+01
2.9262500000000000e+00 3.0126251000000000e+01
2.9262500000000000e+00 3.0126251000000000e+01
ITEM: ATOMS id type xs ys zs
126 2 0.0482077 0.0482077 0.0482077
130 2 0.0482077 0.0482077 0.0452665
146 2 0.0482077 0.0452665 0.0482077
150 2 0.0482077 0.0452665 0.0452665
226 2 0.0452665 0.0482077 0.0482077
230 2 0.0452665 0.0482077 0.0452665
246 2 0.0452665 0.0452665 0.0482077
250 2 0.0452665 0.0452665 0.0452665
1032 1 0.141682 0.141682 0.141682
1381 1 0.0793658 0.141682 0.0793658
1385 1 0.0793658 0.141682 0.0764247
1481 1 0.0764247 0.141682 0.0793658
1485 1 0.0764247 0.141682 0.0764247
1901 1 0.141682 0.0170496 0.0170496
1905 1 0.141682 0.0170496 0.0141084
1921 1 0.141682 0.0141084 0.0170496
1925 1 0.141682 0.0141084 0.0141084
2401 1 0.141682 0.0793658 0.0793658
2405 1 0.141682 0.0793658 0.0764247
2421 1 0.141682 0.0764247 0.0793658
2425 1 0.141682 0.0764247 0.0764247
2627 1 0.0793658 0.0793658 0.141682
2647 1 0.0793658 0.0764247 0.141682
2727 1 0.0764247 0.0793658 0.141682
2747 1 0.0764247 0.0764247 0.141682
2756 1 0.0170496 0.141682 0.0170496
2760 1 0.0170496 0.141682 0.0141084
2856 1 0.0141084 0.141682 0.0170496
2860 1 0.0141084 0.141682 0.0141084
2877 1 0.0170496 0.0170496 0.141682
2897 1 0.0170496 0.0141084 0.141682
2977 1 0.0141084 0.0170496 0.141682
2997 1 0.0141084 0.0141084 0.141682
276 2 0.235156 0.110524 0.110524
280 2 0.235156 0.110524 0.107583
296 2 0.235156 0.107583 0.110524
300 2 0.235156 0.107583 0.107583
1651 1 0.203998 0.0793658 0.0170496
1655 1 0.203998 0.0793658 0.0141084
1671 1 0.203998 0.0764247 0.0170496
1675 1 0.203998 0.0764247 0.0141084
1776 1 0.203998 0.0170496 0.0793658
1780 1 0.203998 0.0170496 0.0764247
1796 1 0.203998 0.0141084 0.0793658
1800 1 0.203998 0.0141084 0.0764247
2781 1 0.266314 0.141682 0.0170496
2785 1 0.266314 0.141682 0.0141084
2902 1 0.266314 0.0170496 0.141682
2922 1 0.266314 0.0141084 0.141682
151 2 0.297472 0.0482077 0.0482077
155 2 0.297472 0.0482077 0.0452665
171 2 0.297472 0.0452665 0.0482077
175 2 0.297472 0.0452665 0.0452665
1057 1 0.390947 0.141682 0.141682
1406 1 0.328631 0.141682 0.0793658
1410 1 0.328631 0.141682 0.0764247
1926 1 0.390947 0.0170496 0.0170496
1930 1 0.390947 0.0170496 0.0141084
1946 1 0.390947 0.0141084 0.0170496
1950 1 0.390947 0.0141084 0.0141084
2426 1 0.390947 0.0793658 0.0793658
2430 1 0.390947 0.0793658 0.0764247
2446 1 0.390947 0.0764247 0.0793658
2450 1 0.390947 0.0764247 0.0764247
2652 1 0.328631 0.0793658 0.141682
2672 1 0.328631 0.0764247 0.141682
176 2 0.546737 0.0482077 0.0482077
180 2 0.546737 0.0482077 0.0452665
196 2 0.546737 0.0452665 0.0482077
200 2 0.546737 0.0452665 0.0452665
301 2 0.484421 0.110524 0.110524
305 2 0.484421 0.110524 0.107583
321 2 0.484421 0.107583 0.110524
325 2 0.484421 0.107583 0.107583
1676 1 0.453263 0.0793658 0.0170496
1680 1 0.453263 0.0793658 0.0141084
1696 1 0.453263 0.0764247 0.0170496
1700 1 0.453263 0.0764247 0.0141084
1801 1 0.453263 0.0170496 0.0793658
1805 1 0.453263 0.0170496 0.0764247
1821 1 0.453263 0.0141084 0.0793658
1825 1 0.453263 0.0141084 0.0764247
2806 1 0.515579 0.141682 0.0170496
2810 1 0.515579 0.141682 0.0141084
2927 1 0.515579 0.0170496 0.141682
2947 1 0.515579 0.0141084 0.141682
1082 1 0.640211 0.141682 0.141682
1431 1 0.577895 0.141682 0.0793658
1435 1 0.577895 0.141682 0.0764247
1701 1 0.702528 0.0793658 0.0170496
1705 1 0.702528 0.0793658 0.0141084
1721 1 0.702528 0.0764247 0.0170496
1725 1 0.702528 0.0764247 0.0141084
1826 1 0.702528 0.0170496 0.0793658
1830 1 0.702528 0.0170496 0.0764247
1846 1 0.702528 0.0141084 0.0793658
1850 1 0.702528 0.0141084 0.0764247
1951 1 0.640211 0.0170496 0.0170496
1955 1 0.640211 0.0170496 0.0141084
1971 1 0.640211 0.0141084 0.0170496
1975 1 0.640211 0.0141084 0.0141084
2451 1 0.640211 0.0793658 0.0793658
2455 1 0.640211 0.0793658 0.0764247
2471 1 0.640211 0.0764247 0.0793658
2475 1 0.640211 0.0764247 0.0764247
2677 1 0.577895 0.0793658 0.141682
2697 1 0.577895 0.0764247 0.141682
201 2 0.796002 0.0482077 0.0482077
205 2 0.796002 0.0482077 0.0452665
221 2 0.796002 0.0452665 0.0482077
225 2 0.796002 0.0452665 0.0452665
326 2 0.733686 0.110524 0.110524
330 2 0.733686 0.110524 0.107583
346 2 0.733686 0.107583 0.110524
350 2 0.733686 0.107583 0.107583
1456 1 0.82716 0.141682 0.0793658
1460 1 0.82716 0.141682 0.0764247
2702 1 0.82716 0.0793658 0.141682
2722 1 0.82716 0.0764247 0.141682
2831 1 0.764844 0.141682 0.0170496
2835 1 0.764844 0.141682 0.0141084
2952 1 0.764844 0.0170496 0.141682
2972 1 0.764844 0.0141084 0.141682
251 2 0.985892 0.110524 0.110524
255 2 0.985892 0.110524 0.107583
271 2 0.985892 0.107583 0.110524
275 2 0.985892 0.107583 0.107583
351 2 0.98295 0.110524 0.110524
355 2 0.98295 0.110524 0.107583
371 2 0.98295 0.107583 0.110524
375 2 0.98295 0.107583 0.107583
1007 1 0.892417 0.141682 0.141682
1107 1 0.889476 0.141682 0.141682
1626 1 0.954733 0.0793658 0.0170496
1630 1 0.954733 0.0793658 0.0141084
1646 1 0.954733 0.0764247 0.0170496
1650 1 0.954733 0.0764247 0.0141084
1726 1 0.951792 0.0793658 0.0170496
1730 1 0.951792 0.0793658 0.0141084
1746 1 0.951792 0.0764247 0.0170496
1750 1 0.951792 0.0764247 0.0141084
1751 1 0.954733 0.0170496 0.0793658
1755 1 0.954733 0.0170496 0.0764247
1771 1 0.954733 0.0141084 0.0793658
1775 1 0.954733 0.0141084 0.0764247
1851 1 0.951792 0.0170496 0.0793658
1855 1 0.951792 0.0170496 0.0764247
1871 1 0.951792 0.0141084 0.0793658
1875 1 0.951792 0.0141084 0.0764247
1876 1 0.892417 0.0170496 0.0170496
1880 1 0.892417 0.0170496 0.0141084
1896 1 0.892417 0.0141084 0.0170496
1900 1 0.892417 0.0141084 0.0141084
1976 1 0.889476 0.0170496 0.0170496
1980 1 0.889476 0.0170496 0.0141084
1996 1 0.889476 0.0141084 0.0170496
2000 1 0.889476 0.0141084 0.0141084
2376 1 0.892417 0.0793658 0.0793658
2380 1 0.892417 0.0793658 0.0764247
2396 1 0.892417 0.0764247 0.0793658
2400 1 0.892417 0.0764247 0.0764247
2476 1 0.889476 0.0793658 0.0793658
2480 1 0.889476 0.0793658 0.0764247
2496 1 0.889476 0.0764247 0.0793658
2500 1 0.889476 0.0764247 0.0764247
506 2 0.110524 0.235156 0.110524
510 2 0.110524 0.235156 0.107583
606 2 0.107583 0.235156 0.110524
610 2 0.107583 0.235156 0.107583
1256 1 0.0793658 0.203998 0.0170496
1260 1 0.0793658 0.203998 0.0141084
1356 1 0.0764247 0.203998 0.0170496
1360 1 0.0764247 0.203998 0.0141084
1906 1 0.141682 0.266314 0.0170496
1910 1 0.141682 0.266314 0.0141084
2256 1 0.0170496 0.203998 0.0793658
2260 1 0.0170496 0.203998 0.0764247
2356 1 0.0141084 0.203998 0.0793658
2360 1 0.0141084 0.203998 0.0764247
2882 1 0.0170496 0.266314 0.141682
2982 1 0.0141084 0.266314 0.141682
906 2 0.17284 0.17284 0.0482077
910 2 0.17284 0.17284 0.0452665
1781 1 0.203998 0.266314 0.0793658
1785 1 0.203998 0.266314 0.0764247
2032 1 0.203998 0.203998 0.141682
2281 1 0.266314 0.203998 0.0793658
2285 1 0.266314 0.203998 0.0764247
2907 1 0.266314 0.266314 0.141682
531 2 0.359789 0.235156 0.110524
535 2 0.359789 0.235156 0.107583
931 2 0.422105 0.17284 0.0482077
935 2 0.422105 0.17284 0.0452665
1281 1 0.328631 0.203998 0.0170496
1285 1 0.328631 0.203998 0.0141084
1931 1 0.390947 0.266314 0.0170496
1935 1 0.390947 0.266314 0.0141084
1806 1 0.453263 0.266314 0.0793658
1810 1 0.453263 0.266314 0.0764247
2057 1 0.453263 0.203998 0.141682
2306 1 0.515579 0.203998 0.0793658
2310 1 0.515579 0.203998 0.0764247
2932 1 0.515579 0.266314 0.141682
556 2 0.609053 0.235156 0.110524
560 2 0.609053 0.235156 0.107583
956 2 0.671369 0.17284 0.0482077
960 2 0.671369 0.17284 0.0452665
1306 1 0.577895 0.203998 0.0170496
1310 1 0.577895 0.203998 0.0141084
1831 1 0.702528 0.266314 0.0793658
1835 1 0.702528 0.266314 0.0764247
1956 1 0.640211 0.266314 0.0170496
1960 1 0.640211 0.266314 0.0141084
2082 1 0.702528 0.203998 0.141682
1331 1 0.82716 0.203998 0.0170496
1335 1 0.82716 0.203998 0.0141084
2331 1 0.764844 0.203998 0.0793658
2335 1 0.764844 0.203998 0.0764247
2957 1 0.764844 0.266314 0.141682
581 2 0.858318 0.235156 0.110524
585 2 0.858318 0.235156 0.107583
881 2 0.923575 0.17284 0.0482077
885 2 0.923575 0.17284 0.0452665
981 2 0.920634 0.17284 0.0482077
985 2 0.920634 0.17284 0.0452665
1756 1 0.954733 0.266314 0.0793658
1760 1 0.954733 0.266314 0.0764247
1856 1 0.951792 0.266314 0.0793658
1860 1 0.951792 0.266314 0.0764247
1881 1 0.892417 0.266314 0.0170496
1885 1 0.892417 0.266314 0.0141084
1981 1 0.889476 0.266314 0.0170496
1985 1 0.889476 0.266314 0.0141084
2007 1 0.954733 0.203998 0.141682
2107 1 0.951792 0.203998 0.141682
131 2 0.0482077 0.297472 0.0482077
135 2 0.0482077 0.297472 0.0452665
231 2 0.0452665 0.297472 0.0482077
235 2 0.0452665 0.297472 0.0452665
1037 1 0.141682 0.390947 0.141682
1386 1 0.0793658 0.390947 0.0793658
1390 1 0.0793658 0.390947 0.0764247
1486 1 0.0764247 0.390947 0.0793658
1490 1 0.0764247 0.390947 0.0764247
2406 1 0.141682 0.328631 0.0793658
2410 1 0.141682 0.328631 0.0764247
2632 1 0.0793658 0.328631 0.141682
2732 1 0.0764247 0.328631 0.141682
2761 1 0.0170496 0.390947 0.0170496
2765 1 0.0170496 0.390947 0.0141084
2861 1 0.0141084 0.390947 0.0170496
2865 1 0.0141084 0.390947 0.0141084
281 2 0.235156 0.359789 0.110524
285 2 0.235156 0.359789 0.107583
911 2 0.17284 0.422105 0.0482077
915 2 0.17284 0.422105 0.0452665
1656 1 0.203998 0.328631 0.0170496
1660 1 0.203998 0.328631 0.0141084
2786 1 0.266314 0.390947 0.0170496
2790 1 0.266314 0.390947 0.0141084
156 2 0.297472 0.297472 0.0482077
160 2 0.297472 0.297472 0.0452665
936 2 0.422105 0.422105 0.0482077
940 2 0.422105 0.422105 0.0452665
1062 1 0.390947 0.390947 0.141682
1411 1 0.328631 0.390947 0.0793658
1415 1 0.328631 0.390947 0.0764247
2431 1 0.390947 0.328631 0.0793658
2435 1 0.390947 0.328631 0.0764247
2657 1 0.328631 0.328631 0.141682
181 2 0.546737 0.297472 0.0482077
185 2 0.546737 0.297472 0.0452665
306 2 0.484421 0.359789 0.110524
310 2 0.484421 0.359789 0.107583
1681 1 0.453263 0.328631 0.0170496
1685 1 0.453263 0.328631 0.0141084
2811 1 0.515579 0.390947 0.0170496
2815 1 0.515579 0.390947 0.0141084
961 2 0.671369 0.422105 0.0482077
965 2 0.671369 0.422105 0.0452665
1087 1 0.640211 0.390947 0.141682
1436 1 0.577895 0.390947 0.0793658
1440 1 0.577895 0.390947 0.0764247
1706 1 0.702528 0.328631 0.0170496
1710 1 0.702528 0.328631 0.0141084
2456 1 0.640211 0.328631 0.0793658
2460 1 0.640211 0.328631 0.0764247
2682 1 0.577895 0.328631 0.141682
206 2 0.796002 0.297472 0.0482077
210 2 0.796002 0.297472 0.0452665
331 2 0.733686 0.359789 0.110524
335 2 0.733686 0.359789 0.107583
1461 1 0.82716 0.390947 0.0793658
1465 1 0.82716 0.390947 0.0764247
2707 1 0.82716 0.328631 0.141682
2836 1 0.764844 0.390947 0.0170496
2840 1 0.764844 0.390947 0.0141084
256 2 0.985892 0.359789 0.110524
260 2 0.985892 0.359789 0.107583
356 2 0.98295 0.359789 0.110524
360 2 0.98295 0.359789 0.107583
886 2 0.923575 0.422105 0.0482077
890 2 0.923575 0.422105 0.0452665
986 2 0.920634 0.422105 0.0482077
990 2 0.920634 0.422105 0.0452665
1012 1 0.892417 0.390947 0.141682
1112 1 0.889476 0.390947 0.141682
1631 1 0.954733 0.328631 0.0170496
1635 1 0.954733 0.328631 0.0141084
1731 1 0.951792 0.328631 0.0170496
1735 1 0.951792 0.328631 0.0141084
2381 1 0.892417 0.328631 0.0793658
2385 1 0.892417 0.328631 0.0764247
2481 1 0.889476 0.328631 0.0793658
2485 1 0.889476 0.328631 0.0764247
136 2 0.0482077 0.546737 0.0482077
140 2 0.0482077 0.546737 0.0452665
236 2 0.0452665 0.546737 0.0482077
240 2 0.0452665 0.546737 0.0452665
511 2 0.110524 0.484421 0.110524
515 2 0.110524 0.484421 0.107583
611 2 0.107583 0.484421 0.110524
615 2 0.107583 0.484421 0.107583
1261 1 0.0793658 0.453263 0.0170496
1265 1 0.0793658 0.453263 0.0141084
1361 1 0.0764247 0.453263 0.0170496
1365 1 0.0764247 0.453263 0.0141084
1911 1 0.141682 0.515579 0.0170496
1915 1 0.141682 0.515579 0.0141084
2261 1 0.0170496 0.453263 0.0793658
2265 1 0.0170496 0.453263 0.0764247
2361 1 0.0141084 0.453263 0.0793658
2365 1 0.0141084 0.453263 0.0764247
2887 1 0.0170496 0.515579 0.141682
2987 1 0.0141084 0.515579 0.141682
1786 1 0.203998 0.515579 0.0793658
1790 1 0.203998 0.515579 0.0764247
2037 1 0.203998 0.453263 0.141682
2286 1 0.266314 0.453263 0.0793658
2290 1 0.266314 0.453263 0.0764247
2912 1 0.266314 0.515579 0.141682
161 2 0.297472 0.546737 0.0482077
165 2 0.297472 0.546737 0.0452665
536 2 0.359789 0.484421 0.110524
540 2 0.359789 0.484421 0.107583
1286 1 0.328631 0.453263 0.0170496
1290 1 0.328631 0.453263 0.0141084
1936 1 0.390947 0.515579 0.0170496
1940 1 0.390947 0.515579 0.0141084
186 2 0.546737 0.546737 0.0482077
190 2 0.546737 0.546737 0.0452665
1811 1 0.453263 0.515579 0.0793658
1815 1 0.453263 0.515579 0.0764247
2062 1 0.453263 0.453263 0.141682
2311 1 0.515579 0.453263 0.0793658
2315 1 0.515579 0.453263 0.0764247
2937 1 0.515579 0.515579 0.141682
561 2 0.609053 0.484421 0.110524
565 2 0.609053 0.484421 0.107583
1311 1 0.577895 0.453263 0.0170496
1315 1 0.577895 0.453263 0.0141084
1836 1 0.702528 0.515579 0.0793658
1840 1 0.702528 0.515579 0.0764247
1961 1 0.640211 0.515579 0.0170496
1965 1 0.640211 0.515579 0.0141084
2087 1 0.702528 0.453263 0.141682
211 2 0.796002 0.546737 0.0482077
215 2 0.796002 0.546737 0.0452665
1336 1 0.82716 0.453263 0.0170496
1340 1 0.82716 0.453263 0.0141084
2336 1 0.764844 0.453263 0.0793658
2340 1 0.764844 0.453263 0.0764247
2962 1 0.764844 0.515579 0.141682
586 2 0.858318 0.484421 0.110524
590 2 0.858318 0.484421 0.107583
1761 1 0.954733 0.515579 0.0793658
1765 1 0.954733 0.515579 0.0764247
1861 1 0.951792 0.515579 0.0793658
1865 1 0.951792 0.515579 0.0764247
1886 1 0.892417 0.515579 0.0170496
1890 1 0.892417 0.515579 0.0141084
1986 1 0.889476 0.515579 0.0170496
1990 1 0.889476 0.515579 0.0141084
2012 1 0.954733 0.453263 0.141682
2112 1 0.951792 0.453263 0.141682
1042 1 0.141682 0.640211 0.141682
1266 1 0.0793658 0.702528 0.0170496
1270 1 0.0793658 0.702528 0.0141084
1366 1 0.0764247 0.702528 0.0170496
1370 1 0.0764247 0.702528 0.0141084
1391 1 0.0793658 0.640211 0.0793658
1395 1 0.0793658 0.640211 0.0764247
1491 1 0.0764247 0.640211 0.0793658
1495 1 0.0764247 0.640211 0.0764247
2266 1 0.0170496 0.702528 0.0793658
2270 1 0.0170496 0.702528 0.0764247
2366 1 0.0141084 0.702528 0.0793658
2370 1 0.0141084 0.702528 0.0764247
2411 1 0.141682 0.577895 0.0793658
2415 1 0.141682 0.577895 0.0764247
2637 1 0.0793658 0.577895 0.141682
2737 1 0.0764247 0.577895 0.141682
2766 1 0.0170496 0.640211 0.0170496
2770 1 0.0170496 0.640211 0.0141084
2866 1 0.0141084 0.640211 0.0170496
2870 1 0.0141084 0.640211 0.0141084
286 2 0.235156 0.609053 0.110524
290 2 0.235156 0.609053 0.107583
916 2 0.17284 0.671369 0.0482077
920 2 0.17284 0.671369 0.0452665
1661 1 0.203998 0.577895 0.0170496
1665 1 0.203998 0.577895 0.0141084
2042 1 0.203998 0.702528 0.141682
2291 1 0.266314 0.702528 0.0793658
2295 1 0.266314 0.702528 0.0764247
2791 1 0.266314 0.640211 0.0170496
2795 1 0.266314 0.640211 0.0141084
941 2 0.422105 0.671369 0.0482077
945 2 0.422105 0.671369 0.0452665
1067 1 0.390947 0.640211 0.141682
1291 1 0.328631 0.702528 0.0170496
1295 1 0.328631 0.702528 0.0141084
1416 1 0.328631 0.640211 0.0793658
1420 1 0.328631 0.640211 0.0764247
2436 1 0.390947 0.577895 0.0793658
2440 1 0.390947 0.577895 0.0764247
2662 1 0.328631 0.577895 0.141682
311 2 0.484421 0.609053 0.110524
315 2 0.484421 0.609053 0.107583
1686 1 0.453263 0.577895 0.0170496
1690 1 0.453263 0.577895 0.0141084
2067 1 0.453263 0.702528 0.141682
2316 1 0.515579 0.702528 0.0793658
2320 1 0.515579 0.702528 0.0764247
2816 1 0.515579 0.640211 0.0170496
2820 1 0.515579 0.640211 0.0141084
966 2 0.671369 0.671369 0.0482077
970 2 0.671369 0.671369 0.0452665
1092 1 0.640211 0.640211 0.141682
1316 1 0.577895 0.702528 0.0170496
1320 1 0.577895 0.702528 0.0141084
1441 1 0.577895 0.640211 0.0793658
1445 1 0.577895 0.640211 0.0764247
1711 1 0.702528 0.577895 0.0170496
1715 1 0.702528 0.577895 0.0141084
2092 1 0.702528 0.702528 0.141682
2461 1 0.640211 0.577895 0.0793658
2465 1 0.640211 0.577895 0.0764247
2687 1 0.577895 0.577895 0.141682
336 2 0.733686 0.609053 0.110524
340 2 0.733686 0.609053 0.107583
1341 1 0.82716 0.702528 0.0170496
1345 1 0.82716 0.702528 0.0141084
1466 1 0.82716 0.640211 0.0793658
1470 1 0.82716 0.640211 0.0764247
2341 1 0.764844 0.702528 0.0793658
2345 1 0.764844 0.702528 0.0764247
2712 1 0.82716 0.577895 0.141682
2841 1 0.764844 0.640211 0.0170496
2845 1 0.764844 0.640211 0.0141084
261 2 0.985892 0.609053 0.110524
265 2 0.985892 0.609053 0.107583
361 2 0.98295 0.609053 0.110524
365 2 0.98295 0.609053 0.107583
891 2 0.923575 0.671369 0.0482077
895 2 0.923575 0.671369 0.0452665
991 2 0.920634 0.671369 0.0482077
995 2 0.920634 0.671369 0.0452665
1017 1 0.892417 0.640211 0.141682
1117 1 0.889476 0.640211 0.141682
1636 1 0.954733 0.577895 0.0170496
1640 1 0.954733 0.577895 0.0141084
1736 1 0.951792 0.577895 0.0170496
1740 1 0.951792 0.577895 0.0141084
2017 1 0.954733 0.702528 0.141682
2117 1 0.951792 0.702528 0.141682
2386 1 0.892417 0.577895 0.0793658
2390 1 0.892417 0.577895 0.0764247
2486 1 0.889476 0.577895 0.0793658
2490 1 0.889476 0.577895 0.0764247
141 2 0.0482077 0.796002 0.0482077
145 2 0.0482077 0.796002 0.0452665
241 2 0.0452665 0.796002 0.0482077
245 2 0.0452665 0.796002 0.0452665
516 2 0.110524 0.733686 0.110524
520 2 0.110524 0.733686 0.107583
616 2 0.107583 0.733686 0.110524
620 2 0.107583 0.733686 0.107583
1916 1 0.141682 0.764844 0.0170496
1920 1 0.141682 0.764844 0.0141084
2416 1 0.141682 0.82716 0.0793658
2420 1 0.141682 0.82716 0.0764247
2642 1 0.0793658 0.82716 0.141682
2742 1 0.0764247 0.82716 0.141682
2892 1 0.0170496 0.764844 0.141682
2992 1 0.0141084 0.764844 0.141682
1666 1 0.203998 0.82716 0.0170496
1670 1 0.203998 0.82716 0.0141084
1791 1 0.203998 0.764844 0.0793658
1795 1 0.203998 0.764844 0.0764247
2917 1 0.266314 0.764844 0.141682
166 2 0.297472 0.796002 0.0482077
170 2 0.297472 0.796002 0.0452665
541 2 0.359789 0.733686 0.110524
545 2 0.359789 0.733686 0.107583
1941 1 0.390947 0.764844 0.0170496
1945 1 0.390947 0.764844 0.0141084
2441 1 0.390947 0.82716 0.0793658
2445 1 0.390947 0.82716 0.0764247
2667 1 0.328631 0.82716 0.141682
191 2 0.546737 0.796002 0.0482077
195 2 0.546737 0.796002 0.0452665
1691 1 0.453263 0.82716 0.0170496
1695 1 0.453263 0.82716 0.0141084
1816 1 0.453263 0.764844 0.0793658
1820 1 0.453263 0.764844 0.0764247
2942 1 0.515579 0.764844 0.141682
566 2 0.609053 0.733686 0.110524
570 2 0.609053 0.733686 0.107583
1716 1 0.702528 0.82716 0.0170496
1720 1 0.702528 0.82716 0.0141084
1841 1 0.702528 0.764844 0.0793658
1845 1 0.702528 0.764844 0.0764247
1966 1 0.640211 0.764844 0.0170496
1970 1 0.640211 0.764844 0.0141084
2466 1 0.640211 0.82716 0.0793658
2470 1 0.640211 0.82716 0.0764247
2692 1 0.577895 0.82716 0.141682
216 2 0.796002 0.796002 0.0482077
220 2 0.796002 0.796002 0.0452665
2717 1 0.82716 0.82716 0.141682
2967 1 0.764844 0.764844 0.141682
591 2 0.858318 0.733686 0.110524
595 2 0.858318 0.733686 0.107583
1641 1 0.954733 0.82716 0.0170496
1645 1 0.954733 0.82716 0.0141084
1741 1 0.951792 0.82716 0.0170496
1745 1 0.951792 0.82716 0.0141084
1766 1 0.954733 0.764844 0.0793658
1770 1 0.954733 0.764844 0.0764247
1866 1 0.951792 0.764844 0.0793658
1870 1 0.951792 0.764844 0.0764247
1891 1 0.892417 0.764844 0.0170496
1895 1 0.892417 0.764844 0.0141084
1991 1 0.889476 0.764844 0.0170496
1995 1 0.889476 0.764844 0.0141084
2391 1 0.892417 0.82716 0.0793658
2395 1 0.892417 0.82716 0.0764247
2491 1 0.889476 0.82716 0.0793658
2495 1 0.889476 0.82716 0.0764247
501 2 0.110524 0.985892 0.110524
505 2 0.110524 0.985892 0.107583
521 2 0.110524 0.98295 0.110524
525 2 0.110524 0.98295 0.107583
601 2 0.107583 0.985892 0.110524
605 2 0.107583 0.985892 0.107583
621 2 0.107583 0.98295 0.110524
625 2 0.107583 0.98295 0.107583
1027 1 0.141682 0.892417 0.141682
1047 1 0.141682 0.889476 0.141682
1251 1 0.0793658 0.954733 0.0170496
1255 1 0.0793658 0.954733 0.0141084
1271 1 0.0793658 0.951792 0.0170496
1275 1 0.0793658 0.951792 0.0141084
1351 1 0.0764247 0.954733 0.0170496
1355 1 0.0764247 0.954733 0.0141084
1371 1 0.0764247 0.951792 0.0170496
1375 1 0.0764247 0.951792 0.0141084
1376 1 0.0793658 0.892417 0.0793658
1380 1 0.0793658 0.892417 0.0764247
1396 1 0.0793658 0.889476 0.0793658
1400 1 0.0793658 0.889476 0.0764247
1476 1 0.0764247 0.892417 0.0793658
1480 1 0.0764247 0.892417 0.0764247
1496 1 0.0764247 0.889476 0.0793658
1500 1 0.0764247 0.889476 0.0764247
2251 1 0.0170496 0.954733 0.0793658
2255 1 0.0170496 0.954733 0.0764247
2271 1 0.0170496 0.951792 0.0793658
2275 1 0.0170496 0.951792 0.0764247
2351 1 0.0141084 0.954733 0.0793658
2355 1 0.0141084 0.954733 0.0764247
2371 1 0.0141084 0.951792 0.0793658
2375 1 0.0141084 0.951792 0.0764247
2751 1 0.0170496 0.892417 0.0170496
2755 1 0.0170496 0.892417 0.0141084
2771 1 0.0170496 0.889476 0.0170496
2775 1 0.0170496 0.889476 0.0141084
2851 1 0.0141084 0.892417 0.0170496
2855 1 0.0141084 0.892417 0.0141084
2871 1 0.0141084 0.889476 0.0170496
2875 1 0.0141084 0.889476 0.0141084
291 2 0.235156 0.858318 0.110524
295 2 0.235156 0.858318 0.107583
901 2 0.17284 0.923575 0.0482077
905 2 0.17284 0.923575 0.0452665
921 2 0.17284 0.920634 0.0482077
925 2 0.17284 0.920634 0.0452665
2027 1 0.203998 0.954733 0.141682
2047 1 0.203998 0.951792 0.141682
2276 1 0.266314 0.954733 0.0793658
2280 1 0.266314 0.954733 0.0764247
2296 1 0.266314 0.951792 0.0793658
2300 1 0.266314 0.951792 0.0764247
2776 1 0.266314 0.892417 0.0170496
2780 1 0.266314 0.892417 0.0141084
2796 1 0.266314 0.889476 0.0170496
2800 1 0.266314 0.889476 0.0141084
526 2 0.359789 0.985892 0.110524
530 2 0.359789 0.985892 0.107583
546 2 0.359789 0.98295 0.110524
550 2 0.359789 0.98295 0.107583
926 2 0.422105 0.923575 0.0482077
930 2 0.422105 0.923575 0.0452665
946 2 0.422105 0.920634 0.0482077
950 2 0.422105 0.920634 0.0452665
1052 1 0.390947 0.892417 0.141682
1072 1 0.390947 0.889476 0.141682
1276 1 0.328631 0.954733 0.0170496
1280 1 0.328631 0.954733 0.0141084
1296 1 0.328631 0.951792 0.0170496
1300 1 0.328631 0.951792 0.0141084
1401 1 0.328631 0.892417 0.0793658
1405 1 0.328631 0.892417 0.0764247
1421 1 0.328631 0.889476 0.0793658
1425 1 0.328631 0.889476 0.0764247
316 2 0.484421 0.858318 0.110524
320 2 0.484421 0.858318 0.107583
2052 1 0.453263 0.954733 0.141682
2072 1 0.453263 0.951792 0.141682
2301 1 0.515579 0.954733 0.0793658
2305 1 0.515579 0.954733 0.0764247
2321 1 0.515579 0.951792 0.0793658
2325 1 0.515579 0.951792 0.0764247
2801 1 0.515579 0.892417 0.0170496
2805 1 0.515579 0.892417 0.0141084
2821 1 0.515579 0.889476 0.0170496
2825 1 0.515579 0.889476 0.0141084
551 2 0.609053 0.985892 0.110524
555 2 0.609053 0.985892 0.107583
571 2 0.609053 0.98295 0.110524
575 2 0.609053 0.98295 0.107583
951 2 0.671369 0.923575 0.0482077
955 2 0.671369 0.923575 0.0452665
971 2 0.671369 0.920634 0.0482077
975 2 0.671369 0.920634 0.0452665
1077 1 0.640211 0.892417 0.141682
1097 1 0.640211 0.889476 0.141682
1301 1 0.577895 0.954733 0.0170496
1305 1 0.577895 0.954733 0.0141084
1321 1 0.577895 0.951792 0.0170496
1325 1 0.577895 0.951792 0.0141084
1426 1 0.577895 0.892417 0.0793658
1430 1 0.577895 0.892417 0.0764247
1446 1 0.577895 0.889476 0.0793658
1450 1 0.577895 0.889476 0.0764247
2077 1 0.702528 0.954733 0.141682
2097 1 0.702528 0.951792 0.141682
341 2 0.733686 0.858318 0.110524
345 2 0.733686 0.858318 0.107583
1326 1 0.82716 0.954733 0.0170496
1330 1 0.82716 0.954733 0.0141084
1346 1 0.82716 0.951792 0.0170496
1350 1 0.82716 0.951792 0.0141084
1451 1 0.82716 0.892417 0.0793658
1455 1 0.82716 0.892417 0.0764247
1471 1 0.82716 0.889476 0.0793658
1475 1 0.82716 0.889476 0.0764247
2326 1 0.764844 0.954733 0.0793658
2330 1 0.764844 0.954733 0.0764247
2346 1 0.764844 0.951792 0.0793658
2350 1 0.764844 0.951792 0.0764247
2826 1 0.764844 0.892417 0.0170496
2830 1 0.764844 0.892417 0.0141084
2846 1 0.764844 0.889476 0.0170496
2850 1 0.764844 0.889476 0.0141084
266 2 0.985892 0.858318 0.110524
270 2 0.985892 0.858318 0.107583
366 2 0.98295 0.858318 0.110524
370 2 0.98295 0.858318 0.107583
576 2 0.858318 0.985892 0.110524
580 2 0.858318 0.985892 0.107583
596 2 0.858318 0.98295 0.110524
600 2 0.858318 0.98295 0.107583
876 2 0.923575 0.923575 0.0482077
880 2 0.923575 0.923575 0.0452665
896 2 0.923575 0.920634 0.0482077
900 2 0.923575 0.920634 0.0452665
976 2 0.920634 0.923575 0.0482077
980 2 0.920634 0.923575 0.0452665
996 2 0.920634 0.920634 0.0482077
1000 2 0.920634 0.920634 0.0452665
1002 1 0.892417 0.892417 0.141682
1022 1 0.892417 0.889476 0.141682
1102 1 0.889476 0.892417 0.141682
1122 1 0.889476 0.889476 0.141682
2002 1 0.954733 0.954733 0.141682
2022 1 0.954733 0.951792 0.141682
2102 1 0.951792 0.954733 0.141682
2122 1 0.951792 0.951792 0.141682
752 2 0.110524 0.110524 0.235156
772 2 0.110524 0.107583 0.235156
852 2 0.107583 0.110524 0.235156
872 2 0.107583 0.107583 0.235156
1502 1 0.0170496 0.0793658 0.203998
1522 1 0.0170496 0.0764247 0.203998
1602 1 0.0141084 0.0793658 0.203998
1622 1 0.0141084 0.0764247 0.203998
1902 1 0.141682 0.0170496 0.266314
1922 1 0.141682 0.0141084 0.266314
2502 1 0.0793658 0.0170496 0.203998
2522 1 0.0793658 0.0141084 0.203998
2602 1 0.0764247 0.0170496 0.203998
2622 1 0.0764247 0.0141084 0.203998
2757 1 0.0170496 0.141682 0.266314
2857 1 0.0141084 0.141682 0.266314
402 2 0.17284 0.0482077 0.17284
422 2 0.17284 0.0452665 0.17284
1527 1 0.266314 0.0793658 0.203998
1547 1 0.266314 0.0764247 0.203998
1652 1 0.203998 0.0793658 0.266314
1672 1 0.203998 0.0764247 0.266314
2157 1 0.203998 0.141682 0.203998
2782 1 0.266314 0.141682 0.266314
427 2 0.422105 0.0482077 0.17284
447 2 0.422105 0.0452665 0.17284
777 2 0.359789 0.110524 0.235156
797 2 0.359789 0.107583 0.235156
1927 1 0.390947 0.0170496 0.266314
1947 1 0.390947 0.0141084 0.266314
2527 1 0.328631 0.0170496 0.203998
2547 1 0.328631 0.0141084 0.203998
1552 1 0.515579 0.0793658 0.203998
1572 1 0.515579 0.0764247 0.203998
1677 1 0.453263 0.0793658 0.266314
1697 1 0.453263 0.0764247 0.266314
2182 1 0.453263 0.141682 0.203998
2807 1 0.515579 0.141682 0.266314
452 2 0.671369 0.0482077 0.17284
472 2 0.671369 0.0452665 0.17284
802 2 0.609053 0.110524 0.235156
822 2 0.609053 0.107583 0.235156
1702 1 0.702528 0.0793658 0.266314
1722 1 0.702528 0.0764247 0.266314
1952 1 0.640211 0.0170496 0.266314
1972 1 0.640211 0.0141084 0.266314
2207 1 0.702528 0.141682 0.203998
2552 1 0.577895 0.0170496 0.203998
2572 1 0.577895 0.0141084 0.203998
1577 1 0.764844 0.0793658 0.203998
1597 1 0.764844 0.0764247 0.203998
2577 1 0.82716 0.0170496 0.203998
2597 1 0.82716 0.0141084 0.203998
2832 1 0.764844 0.141682 0.266314
377 2 0.923575 0.0482077 0.17284
397 2 0.923575 0.0452665 0.17284
477 2 0.920634 0.0482077 0.17284
497 2 0.920634 0.0452665 0.17284
827 2 0.858318 0.110524 0.235156
847 2 0.858318 0.107583 0.235156
1627 1 0.954733 0.0793658 0.266314
1647 1 0.954733 0.0764247 0.266314
1727 1 0.951792 0.0793658 0.266314
1747 1 0.951792 0.0764247 0.266314
1877 1 0.892417 0.0170496 0.266314
1897 1 0.892417 0.0141084 0.266314
1977 1 0.889476 0.0170496 0.266314
1997 1 0.889476 0.0141084 0.266314
2132 1 0.954733 0.141682 0.203998
2232 1 0.951792 0.141682 0.203998
632 2 0.0482077 0.17284 0.17284
732 2 0.0452665 0.17284 0.17284
1157 1 0.141682 0.203998 0.203998
1257 1 0.0793658 0.203998 0.266314
1357 1 0.0764247 0.203998 0.266314
1907 1 0.141682 0.266314 0.266314
2507 1 0.0793658 0.266314 0.203998
2607 1 0.0764247 0.266314 0.203998
32 2 0.235156 0.235156 0.235156
657 2 0.297472 0.17284 0.17284
1182 1 0.390947 0.203998 0.203998
1282 1 0.328631 0.203998 0.266314
1932 1 0.390947 0.266314 0.266314
2532 1 0.328631 0.266314 0.203998
57 2 0.484421 0.235156 0.235156
682 2 0.546737 0.17284 0.17284
1207 1 0.640211 0.203998 0.203998
1307 1 0.577895 0.203998 0.266314
1957 1 0.640211 0.266314 0.266314
2557 1 0.577895 0.266314 0.203998
82 2 0.733686 0.235156 0.235156
707 2 0.796002 0.17284 0.17284
1332 1 0.82716 0.203998 0.266314
2582 1 0.82716 0.266314 0.203998
7 2 0.985892 0.235156 0.235156
107 2 0.98295 0.235156 0.235156
1132 1 0.892417 0.203998 0.203998
1232 1 0.889476 0.203998 0.203998
1882 1 0.892417 0.266314 0.266314
1982 1 0.889476 0.266314 0.266314
637 2 0.0482077 0.422105 0.17284
737 2 0.0452665 0.422105 0.17284
757 2 0.110524 0.359789 0.235156
857 2 0.107583 0.359789 0.235156
1507 1 0.0170496 0.328631 0.203998
1607 1 0.0141084 0.328631 0.203998
2762 1 0.0170496 0.390947 0.266314
2862 1 0.0141084 0.390947 0.266314
407 2 0.17284 0.297472 0.17284
1532 1 0.266314 0.328631 0.203998
1657 1 0.203998 0.328631 0.266314
2162 1 0.203998 0.390947 0.203998
2787 1 0.266314 0.390947 0.266314
432 2 0.422105 0.297472 0.17284
662 2 0.297472 0.422105 0.17284
782 2 0.359789 0.359789 0.235156
687 2 0.546737 0.422105 0.17284
1557 1 0.515579 0.328631 0.203998
1682 1 0.453263 0.328631 0.266314
2187 1 0.453263 0.390947 0.203998
2812 1 0.515579 0.390947 0.266314
457 2 0.671369 0.297472 0.17284
807 2 0.609053 0.359789 0.235156
1707 1 0.702528 0.328631 0.266314
2212 1 0.702528 0.390947 0.203998
712 2 0.796002 0.422105 0.17284
1582 1 0.764844 0.328631 0.203998
2837 1 0.764844 0.390947 0.266314
382 2 0.923575 0.297472 0.17284
482 2 0.920634 0.297472 0.17284
832 2 0.858318 0.359789 0.235156
1632 1 0.954733 0.328631 0.266314
1732 1 0.951792 0.328631 0.266314
2137 1 0.954733 0.390947 0.203998
2237 1 0.951792 0.390947 0.203998
1162 1 0.141682 0.453263 0.203998
1262 1 0.0793658 0.453263 0.266314
1362 1 0.0764247 0.453263 0.266314
1912 1 0.141682 0.515579 0.266314
2512 1 0.0793658 0.515579 0.203998
2612 1 0.0764247 0.515579 0.203998
37 2 0.235156 0.484421 0.235156
412 2 0.17284 0.546737 0.17284
437 2 0.422105 0.546737 0.17284
1187 1 0.390947 0.453263 0.203998
1287 1 0.328631 0.453263 0.266314
1937 1 0.390947 0.515579 0.266314
2537 1 0.328631 0.515579 0.203998
62 2 0.484421 0.484421 0.235156
462 2 0.671369 0.546737 0.17284
1212 1 0.640211 0.453263 0.203998
1312 1 0.577895 0.453263 0.266314
1962 1 0.640211 0.515579 0.266314
2562 1 0.577895 0.515579 0.203998
87 2 0.733686 0.484421 0.235156
1337 1 0.82716 0.453263 0.266314
2587 1 0.82716 0.515579 0.203998
12 2 0.985892 0.484421 0.235156
112 2 0.98295 0.484421 0.235156
387 2 0.923575 0.546737 0.17284
487 2 0.920634 0.546737 0.17284
1137 1 0.892417 0.453263 0.203998
1237 1 0.889476 0.453263 0.203998