ITEM: TIMESTEP
0
ITEM: NUMBER OF ATOMS
3000
ITEM: BOX BOUNDS pp pp pp
2.9262500000000000e+00 3.0126251000000000e+01
2.9262500000000000e+00 3.0126251000000000e+01
2.9262500000000000e+00 3.0126251000000000e+01
ITEM: ATOMS id type xs ys zs
126 2 0.100865 0.106999 0.117061
130 2 0.122349 0.118448 0.0588147
146 2 0.108837 0.0483456 0.0983503
150 2 0.0978218 0.026447 0.0315917
226 2 0.0467031 0.105999 0.0978986
230 2 0.0272724 0.0975836 0.0337383
246 2 0.0318951 0.0312888 0.100232
250 2 0.0449035 0.0434598 0.0398302
1032 1 0.138805 0.139454 0.138742
1381 1 0.13598 0.141996 0.135807
2627 1 0.140538 0.138747 0.137624
275 2 0.00279392 0.118607 0.120366
605 2 0.119367 0.00179294 0.119018
871 2 0.112906 0.115602 0.00366841
1 2 0.0101436 0.00895789 0.01416
1901 1 0.155505 0.0441738 0.0334533
2405 1 0.178951 0.138392 0.0677219
2425 1 0.157357 0.0743826 0.0813654
300 2 0.233693 0.10627 0.109026
1671 1 0.243757 0.0767231 0.0514669
1776 1 0.246761 0.0500047 0.134894
1780 1 0.204074 0.046134 0.0784443
2902 1 0.247377 0.04131 0.13572
505 2 0.177988 0.00211913 0.112663
771 2 0.182933 0.112525 0.00565858
26 2 0.23403 0.0120733 0.011627
151 2 0.327392 0.101682 0.108418
155 2 0.302314 0.103225 0.0343752
171 2 0.299598 0.0334667 0.100484
175 2 0.315879 0.0308705 0.0296072
1926 1 0.412919 0.0437659 0.0418873
2430 1 0.404706 0.136791 0.0782078
2446 1 0.406693 0.0828799 0.139021
2450 1 0.377179 0.0749151 0.0779137
2652 1 0.358437 0.141181 0.137722
530 2 0.371606 0.0153049 0.107618
796 2 0.376893 0.10806 0.0188448
176 2 0.565157 0.104015 0.109131
180 2 0.534965 0.0969639 0.033104
196 2 0.534465 0.0288518 0.105104
200 2 0.553886 0.0292015 0.0290797
325 2 0.471894 0.0953569 0.101967
1696 1 0.459601 0.0873631 0.0408051
1801 1 0.47666 0.0458208 0.141313
1805 1 0.434801 0.0305913 0.0979641
51 2 0.471255 0.0223329 0.0220261
1721 1 0.697273 0.0888092 0.0481157
1830 1 0.687394 0.0268441 0.0931583
1951 1 0.655911 0.0457417 0.0463406
2451 1 0.6038 0.141579 0.137813
2455 1 0.643834 0.140129 0.0780982
2475 1 0.619011 0.0755878 0.0800531
2677 1 0.605889 0.14174 0.137996
350 2 0.697059 0.108885 0.111238
555 2 0.6129 0.0183875 0.108767
821 2 0.615972 0.106945 0.0201088
76 2 0.694304 0.0157109 0.0154732
201 2 0.780438 0.0942068 0.096171
205 2 0.753707 0.102337 0.0327993
221 2 0.751537 0.0283314 0.10311
225 2 0.762543 0.0262283 0.0280971
1976 1 0.810971 0.0480336 0.044806
1996 1 0.830107 0.00101876 0.0549306
2500 1 0.83607 0.0756386 0.0812594
580 2 0.837755 0.0116601 0.108194
846 2 0.838865 0.106259 0.00968178
375 2 0.942985 0.10217 0.102134
1626 1 0.969436 0.128255 0.0508116
1646 1 0.974425 0.0788192 0.0352912
1726 1 0.908778 0.14221 0.0330519
1746 1 0.918681 0.0874004 0.0414187
1751 1 0.968439 0.0525119 0.125167
1755 1 0.980224 0.0435801 0.0780783
1851 1 0.909069 0.0352796 0.142181
1855 1 0.914086 0.0413778 0.0889203
1876 1 0.885399 0.0461264 0.0443407
2376 1 0.907796 0.134945 0.134655
2400 1 0.882509 0.0912711 0.0900246
101 2 0.933707 0.0103749 0.0165991
1485 1 0.0795112 0.163405 0.0787159
2401 1 0.138684 0.142976 0.139791
2756 1 0.0394017 0.155547 0.0374121
2860 1 0.00421197 0.17803 0.00257796
255 2 0.00378154 0.176321 0.114628
610 2 0.10658 0.234725 0.103323
1356 1 0.0824842 0.212152 0.0452092
1906 1 0.128242 0.247614 0.0381143
2256 1 0.0611747 0.225046 0.140768
2260 1 0.039895 0.207879 0.0852528
2882 1 0.0423567 0.256579 0.13377
851 2 0.112159 0.177986 0.000531822
6 2 0.0148807 0.235031 0.0151505
1385 1 0.151084 0.172708 0.090717
280 2 0.267656 0.177206 0.106093
1651 1 0.246296 0.143283 0.049677
2781 1 0.246211 0.145641 0.0423202
510 2 0.180187 0.269889 0.106408
1256 1 0.143908 0.25027 0.0553036
1910 1 0.185394 0.285609 0.0139068
906 2 0.196468 0.196338 0.119755
910 2 0.21826 0.211459 0.0131627
1781 1 0.241214 0.254223 0.134306
1785 1 0.216154 0.274057 0.052291
2032 1 0.240871 0.241352 0.142146
2281 1 0.253419 0.241478 0.133298
2285 1 0.274052 0.218357 0.05585
751 2 0.167911 0.193366 0.0414184
31 2 0.266029 0.267006 0.00488839
2785 1 0.290647 0.185674 0.00813541
1406 1 0.355673 0.149188 0.135677
1410 1 0.324286 0.16814 0.0810339
535 2 0.361049 0.249471 0.101116
931 2 0.416335 0.20045 0.111681
1281 1 0.331512 0.231711 0.0473146
1931 1 0.39718 0.268604 0.0417934
776 2 0.363397 0.175438 0.0244479
305 2 0.488224 0.172682 0.102224
1676 1 0.457508 0.145531 0.0410546
2806 1 0.512449 0.153078 0.0383134
1435 1 0.561641 0.173333 0.0852089
935 2 0.429045 0.20692 0.0235058
1806 1 0.463372 0.253076 0.138732
1810 1 0.454031 0.278187 0.0784729
2306 1 0.513152 0.240923 0.12789
2310 1 0.522162 0.213818 0.0598869
56 2 0.487532 0.259772 0.0165473
1431 1 0.603938 0.146527 0.141957
1701 1 0.689875 0.146803 0.0388792
560 2 0.604322 0.252364 0.100055
956 2 0.660072 0.203934 0.109406
960 2 0.665025 0.203673 0.0229335
1306 1 0.574322 0.236972 0.0414769
1831 1 0.710328 0.247462 0.140726
1835 1 0.694402 0.282 0.08327
1956 1 0.640039 0.268992 0.0417081
801 2 0.596434 0.175119 0.0261965
330 2 0.734472 0.178654 0.0990219
1460 1 0.811643 0.14851 0.0773157
2831 1 0.760971 0.158274 0.0476334
2480 1 0.821878 0.144766 0.0807482
1331 1 0.818503 0.25942 0.0360703
1335 1 0.768666 0.214383 0.00847145
2331 1 0.74908 0.238487 0.129464
2335 1 0.767907 0.218203 0.0466095
585 2 0.817689 0.26271 0.107933
981 2 0.851275 0.20565 0.1029
1981 1 0.819884 0.259016 0.0363205
826 2 0.815548 0.164769 0.0141411
81 2 0.715349 0.257344 0.0196423
2856 1 0.97495 0.178424 0.0553594
355 2 0.939147 0.178296 0.117354
2380 1 0.882234 0.147608 0.0810701
2356 1 0.982592 0.241905 0.136258
2360 1 0.995349 0.231337 0.0676572
881 2 0.91984 0.232984 0.0939306
885 2 0.92779 0.198202 0.0295604
985 2 0.861613 0.213274 0.0281709
1760 1 0.972562 0.27963 0.0665035
106 2 0.949787 0.270552 0.012204
131 2 0.103231 0.326945 0.109066
135 2 0.102363 0.301796 0.0356842
231 2 0.0371721 0.294428 0.101619
235 2 0.0322742 0.313157 0.0317495
1386 1 0.141557 0.364446 0.137857
1390 1 0.138134 0.404519 0.0807143
1486 1 0.0827856 0.406388 0.138652
1490 1 0.074557 0.376749 0.0782033
2761 1 0.0411838 0.413807 0.0428145
260 2 0.0165399 0.369842 0.10718
856 2 0.107456 0.375728 0.0181038
2406 1 0.145579 0.359963 0.136986
2410 1 0.167467 0.323047 0.0761039
285 2 0.248484 0.360079 0.101359
911 2 0.200829 0.417548 0.111074
1656 1 0.231425 0.332678 0.0459825
2786 1 0.267422 0.397159 0.0422526
756 2 0.175414 0.366225 0.0256527
156 2 0.303646 0.303602 0.110385
160 2 0.316105 0.315923 0.0304765
936 2 0.422939 0.422572 0.111657
940 2 0.425082 0.426464 0.0294163
1411 1 0.34266 0.379182 0.134459
1415 1 0.326872 0.395417 0.0725526
2431 1 0.378405 0.343186 0.133854
2435 1 0.395918 0.32711 0.0727227
781 2 0.368929 0.368717 0.0183068
181 2 0.545146 0.310414 0.109872
185 2 0.551495 0.30612 0.0281816
310 2 0.481821 0.361782 0.0953857
1681 1 0.451387 0.333601 0.0369116
2811 1 0.513476 0.391631 0.0386991
961 2 0.665566 0.427145 0.11282
965 2 0.661563 0.420147 0.0293384
1436 1 0.59021 0.380263 0.134833
1440 1 0.572107 0.395422 0.0728941
1706 1 0.698501 0.337318 0.0364837
2456 1 0.625874 0.341986 0.133282
2460 1 0.644274 0.326102 0.0723163
806 2 0.608542 0.361742 0.0199215
206 2 0.765454 0.313441 0.116017
210 2 0.765503 0.311344 0.0303567
335 2 0.717619 0.370552 0.0981688
1465 1 0.795874 0.393563 0.0775342
2836 1 0.737938 0.396223 0.0369015
2481 1 0.826457 0.352337 0.137733
2485 1 0.825929 0.334323 0.0638484
831 2 0.829273 0.374252 0.0145807
1756 1 0.972254 0.303384 0.126759
1860 1 0.922602 0.286339 0.0833872
1881 1 0.870056 0.287234 0.0619448
2861 1 0.98563 0.391885 0.0496604
360 2 0.942403 0.366077 0.0975944
890 2 0.93676 0.421914 0.0256006
986 2 0.861068 0.407737 0.110833
1631 1 0.979911 0.330998 0.0521961
1635 1 0.957735 0.339181 0.00112302
1731 1 0.903709 0.329828 0.0368267
2381 1 0.889187 0.316037 0.126853
2385 1 0.884576 0.361424 0.0749299
136 2 0.106645 0.563988 0.108823
140 2 0.108085 0.537478 0.0331554
236 2 0.0296011 0.534633 0.105299
240 2 0.032068 0.551811 0.0295394
615 2 0.0929595 0.471761 0.0976363
1361 1 0.0950777 0.442441 0.0424835
2261 1 0.0474357 0.476362 0.141788
2265 1 0.0267875 0.437049 0.0974551
11 2 0.0224947 0.47142 0.0230379
915 2 0.203678 0.433053 0.0249248
515 2 0.173798 0.490002 0.103765
1261 1 0.144982 0.47693 0.0415444
1911 1 0.144723 0.481254 0.0414538
1786 1 0.241496 0.515362 0.127979
1790 1 0.206545 0.525346 0.0579145
2286 1 0.253535 0.464518 0.138186
2290 1 0.279863 0.45368 0.0773884
2415 1 0.17472 0.556701 0.0801846
36 2 0.259297 0.4882 0.017446
161 2 0.310878 0.545571 0.109654
165 2 0.306006 0.550892 0.02838
540 2 0.361749 0.481964 0.0959608
1286 1 0.335095 0.451281 0.03709
1936 1 0.390874 0.513648 0.0388711
186 2 0.547057 0.546645 0.110784
190 2 0.544633 0.545932 0.0285592
1811 1 0.464026 0.503981 0.134679
1815 1 0.449652 0.520119 0.0725456
2311 1 0.502225 0.464005 0.133616
2315 1 0.521609 0.450206 0.0725811
61 2 0.485598 0.484972 0.0196819
565 2 0.606645 0.485316 0.0958818
1311 1 0.579766 0.453237 0.0373038
1836 1 0.708562 0.498602 0.135566
1840 1 0.696346 0.521459 0.0737755
1961 1 0.638687 0.513953 0.038761
2465 1 0.642765 0.570911 0.0730469
211 2 0.77632 0.544471 0.112802
215 2 0.767281 0.542313 0.0291012
1336 1 0.817254 0.487446 0.041698
1340 1 0.78242 0.455545 0.000872176
2336 1 0.748052 0.466833 0.131107
2340 1 0.768165 0.446608 0.0686892
590 2 0.838999 0.484959 0.108907
1986 1 0.81829 0.489758 0.0430838
86 2 0.71608 0.478888 0.018125
886 2 0.934711 0.439124 0.113387
990 2 0.859294 0.440396 0.0350778
2365 1 0.976479 0.457035 0.0688435
1761 1 0.964155 0.533373 0.131895
1765 1 0.970061 0.516345 0.0731747
1865 1 0.913388 0.498335 0.0816696
1886 1 0.870534 0.530084 0.0580859
1636 1 0.975199 0.568707 0.0492392
1736 1 0.90691 0.565961 0.0316436
2386 1 0.889511 0.555234 0.121973
111 2 0.94985 0.50634 0.0171502
1366 1 0.0907145 0.694278 0.0425943
1391 1 0.141802 0.61135 0.138167
1395 1 0.141861 0.642937 0.0809217
1495 1 0.0764408 0.618728 0.0797035
2270 1 0.0244012 0.689435 0.0948383
2411 1 0.141209 0.604539 0.140498
2637 1 0.141238 0.605338 0.138352
2766 1 0.0465346 0.657313 0.0476352
265 2 0.0198589 0.612441 0.108199
620 2 0.10634 0.695212 0.109221
861 2 0.107832 0.617648 0.0214072
16 2 0.0168982 0.69302 0.0183914
1266 1 0.149187 0.690889 0.0409236
290 2 0.251124 0.603362 0.0995985
916 2 0.203977 0.660451 0.110678
920 2 0.205566 0.666518 0.0248434
1661 1 0.237249 0.575427 0.0393981
2291 1 0.25274 0.708785 0.139939
2295 1 0.283967 0.693791 0.0815382
2791 1 0.268483 0.639036 0.0418346
761 2 0.175867 0.600726 0.0283774
941 2 0.426676 0.665371 0.112897
945 2 0.419827 0.66145 0.0298396
1291 1 0.338372 0.698715 0.0361538
1416 1 0.341769 0.626336 0.133621
1420 1 0.32535 0.64419 0.0723604
2436 1 0.379499 0.59087 0.134123
2440 1 0.396233 0.572164 0.0729188
786 2 0.361504 0.608387 0.0202354
315 2 0.485193 0.606859 0.0958684
1686 1 0.454249 0.57825 0.0373378
2316 1 0.498234 0.708636 0.135306
2320 1 0.521755 0.6964 0.0737852
2816 1 0.514217 0.638832 0.0386253
1445 1 0.571095 0.642684 0.0730604
966 2 0.669214 0.668963 0.11374
970 2 0.656036 0.655893 0.0320526
1316 1 0.581143 0.699072 0.0360766
1441 1 0.589702 0.627585 0.13431
1711 1 0.698919 0.580585 0.0358249
2461 1 0.627409 0.590193 0.133891
811 2 0.603069 0.602899 0.0199828
91 2 0.709786 0.707659 0.0168545
340 2 0.722689 0.608006 0.0979874
1470 1 0.796367 0.639124 0.0793786
2341 1 0.742595 0.706681 0.132566
2345 1 0.768039 0.692309 0.0711667
2841 1 0.7402 0.64211 0.0398727
2486 1 0.826924 0.597529 0.137898
2490 1 0.827799 0.57338 0.0652877
836 2 0.826236 0.614281 0.0152052
2370 1 0.961683 0.695253 0.0567152
2866 1 0.989214 0.630599 0.0565628
365 2 0.944225 0.595713 0.103363
891 2 0.94042 0.676061 0.115045
895 2 0.929504 0.649395 0.0281288
991 2 0.867167 0.647934 0.111907
995 2 0.865399 0.678412 0.0341489
1640 1 0.954366 0.589682 0.000159049
2390 1 0.889411 0.605041 0.0692242
141 2 0.0956286 0.777996 0.0977558
145 2 0.103263 0.752359 0.0304363
241 2 0.0284877 0.753195 0.100276
245 2 0.0251047 0.761391 0.0277404
1500 1 0.0747754 0.836261 0.0821229
2771 1 0.0479134 0.808968 0.0465383
2871 1 0.00294543 0.831749 0.056321
270 2 0.0123704 0.840051 0.108839
866 2 0.105048 0.838024 0.00988239
520 2 0.178033 0.735172 0.0984388
1916 1 0.158701 0.766036 0.0500775
2420 1 0.143758 0.815233 0.0792348
2642 1 0.14422 0.810934 0.141997
1666 1 0.258012 0.826004 0.0301855
1670 1 0.215829 0.770625 0.0118078
1791 1 0.238956 0.750944 0.130492
1795 1 0.217826 0.769253 0.04511
1400 1 0.144006 0.817893 0.0778051
295 2 0.258824 0.816909 0.108792
921 2 0.204224 0.852098 0.102322
2796 1 0.263388 0.809771 0.0426048
41 2 0.257692 0.716132 0.0198589
766 2 0.165044 0.816308 0.0126451
166 2 0.313896 0.768945 0.116461
170 2 0.311232 0.765629 0.0307753
545 2 0.369584 0.717661 0.0984638
1941 1 0.395951 0.737897 0.0369646
2445 1 0.394629 0.795493 0.078023
1421 1 0.353825 0.827329 0.13823
1425 1 0.334401 0.826378 0.0644903
791 2 0.373653 0.828353 0.0150986
191 2 0.54438 0.776789 0.112416
195 2 0.54193 0.766084 0.0291087
1691 1 0.492491 0.810485 0.0416591
1695 1 0.456574 0.782335 0.000346774
1816 1 0.467912 0.748165 0.13133
1820 1 0.447048 0.768686 0.0691055
320 2 0.484975 0.842165 0.108685
2821 1 0.48482 0.822772 0.0456085
66 2 0.478458 0.715877 0.0180985
570 2 0.608056 0.722764 0.0987266
1720 1 0.689632 0.778433 0.00424114
1841 1 0.706302 0.741795 0.131592
1845 1 0.689244 0.76912 0.0698336
1966 1 0.639912 0.737335 0.039379
2470 1 0.641031 0.795092 0.0794708
1446 1 0.598208 0.8271 0.137932
1450 1 0.573274 0.827997 0.0656346
816 2 0.612992 0.824649 0.0150829
1341 1 0.816384 0.730986 0.0420512
1716 1 0.725008 0.822203 0.0402833
216 2 0.77159 0.77654 0.113391
220 2 0.758871 0.764512 0.0283221
595 2 0.837701 0.715914 0.10862
1991 1 0.827545 0.724744 0.0467578
2495 1 0.807685 0.803683 0.0648955
345 2 0.719807 0.835317 0.104017
1471 1 0.818885 0.814513 0.139729
1475 1 0.806699 0.797863 0.0680456
2846 1 0.724792 0.829362 0.0372357
1122 1 0.821636 0.811861 0.14054
841 2 0.81604 0.809824 0.00206476
1641 1 0.956799 0.799793 0.0633608
1645 1 0.974505 0.780844 0.00798291
1741 1 0.910125 0.809947 0.0365015
1766 1 0.968253 0.759002 0.132203
1770 1 0.975073 0.751891 0.0725087
1870 1 0.922462 0.721372 0.0719897
1891 1 0.878309 0.7627 0.0743384
1895 1 0.887969 0.750555 0.00487669
2391 1 0.88113 0.778936 0.102611
2395 1 0.867125 0.82039 0.0703333
2875 1 0.993126 0.83191 0.000562214
370 2 0.933109 0.804309 0.116558
1000 2 0.858214 0.850884 0.0236738
116 2 0.944228 0.732992 0.0136556
625 2 0.101934 0.940178 0.102435
1251 1 0.126886 0.969024 0.0517376
1271 1 0.142719 0.908986 0.0342987
1351 1 0.0774219 0.976053 0.0444981
1355 1 0.0553337 0.966694 0.00273745
1371 1 0.0879714 0.915875 0.041787
1376 1 0.135172 0.906186 0.135193
1480 1 0.091028 0.88216 0.0915854
2251 1 0.0562822 0.974505 0.128717
2255 1 0.034272 0.975537 0.0809217
2271 1 0.0323283 0.911744 0.141088
2275 1 0.0410264 0.920084 0.0861847
2751 1 0.0453303 0.883794 0.0456897
21 2 0.00851106 0.933632 0.00322253
1921 1 0.177422 0.971551 0.0551267
1925 1 0.177147 0.999012 0.00631463
1796 1 0.239448 0.987511 0.130936
1800 1 0.22982 0.997798 0.0659855
525 2 0.178212 0.937588 0.116195
1380 1 0.148794 0.877393 0.0810608
901 2 0.235303 0.919956 0.0977407
905 2 0.198921 0.925815 0.0303097
925 2 0.214483 0.861474 0.0280176
2280 1 0.277629 0.974382 0.0662911
2780 1 0.279809 0.892504 3.57469e-05
46 2 0.268868 0.948816 0.0128791
1946 1 0.394247 0.985146 0.0492318
2276 1 0.299868 0.965027 0.131609
2300 1 0.28657 0.924468 0.0838933
2776 1 0.286589 0.868962 0.06559
550 2 0.365367 0.943747 0.0985163
930 2 0.422483 0.934297 0.0265889
946 2 0.407632 0.861615 0.111423
1276 1 0.330301 0.977657 0.0527869
1280 1 0.340509 0.956668 0.00204576
1296 1 0.327302 0.902783 0.0373484
1401 1 0.315988 0.890889 0.126419
1405 1 0.362219 0.885138 0.0737237
1825 1 0.458222 0.983532 0.0718783
926 2 0.441115 0.932634 0.108209
950 2 0.438111 0.858545 0.0340835
2301 1 0.532713 0.964261 0.131273
2305 1 0.515409 0.971437 0.0720198
2325 1 0.504148 0.914481 0.082936
2801 1 0.529539 0.869662 0.0562508
1301 1 0.568058 0.973651 0.049784
1321 1 0.565877 0.907293 0.0334856
1426 1 0.555074 0.889614 0.123404
71 2 0.504099 0.949579 0.0169598
1850 1 0.693835 0.965314 0.0590264
1971 1 0.629764 0.988348 0.0559536
575 2 0.595685 0.944256 0.103786
951 2 0.676299 0.9379 0.114014
955 2 0.65068 0.930946 0.0284459
971 2 0.649116 0.866043 0.112958
975 2 0.674321 0.862489 0.0357789
1305 1 0.589068 0.954509 0.000119564
1430 1 0.604848 0.888621 0.070013
1326 1 0.80171 0.949918 0.0586564
1330 1 0.784064 0.971014 0.00919608
1346 1 0.81997 0.900845 0.0178831
1451 1 0.777594 0.881052 0.108092
1455 1 0.817866 0.87599 0.071639
2326 1 0.760247 0.971001 0.131466
2330 1 0.754379 0.975967 0.0698727
2350 1 0.724316 0.921336 0.0741024
2826 1 0.762685 0.876163 0.0655772
2830 1 0.750411 0.892551 0.00230786
600 2 0.803917 0.934341 0.116097
996 2 0.85553 0.859809 0.11007
96 2 0.735061 0.945436 0.0148701
1771 1 0.955478 0.994018 0.130202
1775 1 0.963546 0.998525 0.064238
1871 1 0.884438 0.988627 0.127562
1875 1 0.92044 0.988484 0.0883944
1896 1 0.876806 0.990333 0.0490263
2351 1 0.998652 0.96131 0.131031
2355 1 0.997453 0.966731 0.0458361
2371 1 0.987396 0.887843 0.123574
2375 1 0.987801 0.924327 0.0843237
2851 1 0.990312 0.880077 0.0490967
876 2 0.93492 0.935718 0.0936737
880 2 0.917238 0.91717 0.042813
896 2 0.932014 0.871648 0.115606
900 2 0.936961 0.860083 0.0434562
976 2 0.871628 0.934245 0.118599
980 2 0.862748 0.937588 0.0447206
1002 1 0.886076 0.886553 0.142635
121 2 0.944583 0.945516 0.00857552
2647 1 0.141044 0.0708906 0.180613
2747 1 0.0833472 0.0827966 0.165209
2877 1 0.0403427 0.0374203 0.158576
271 2 0.00838425 0.115805 0.178868
601 2 0.112107 0.0130676 0.181152
872 2 0.109226 0.1085 0.241549
1502 1 0.0506311 0.136391 0.240503
1522 1 0.0439208 0.07824 0.204903
2602 1 0.0730202 0.0529984 0.244294
2757 1 0.0471756 0.140034 0.244011
2 2 0.0104075 0.0123111 0.232844
2421 1 0.173295 0.0890562 0.146298
296 2 0.266693 0.105504 0.181066
501 2 0.192379 0.0416556 0.167742
772 2 0.179323 0.108195 0.265993
1902 1 0.147895 0.0465072 0.255514
2502 1 0.143781 0.0464482 0.242922
402 2 0.194076 0.121056 0.194941
422 2 0.210052 0.0123463 0.217351
1527 1 0.2537 0.13547 0.241431
1547 1 0.278505 0.0476352 0.20949
1652 1 0.243086 0.132214 0.254212
1672 1 0.21873 0.0530555 0.270338
2157 1 0.2409 0.141697 0.240051
27 2 0.268768 0.00669518 0.26496
2922 1 0.286063 0.0146923 0.185085
2426 1 0.363134 0.139903 0.144086
2672 1 0.317932 0.0711393 0.170963
526 2 0.367712 0.029349 0.17449
427 2 0.416522 0.11125 0.200738
797 2 0.359887 0.103141 0.24901
1927 1 0.394469 0.0429728 0.267221
2527 1 0.334761 0.0460068 0.235877
321 2 0.490961 0.104717 0.181508
2927 1 0.489789 0.0470466 0.146038
2697 1 0.557019 0.0770039 0.176676
447 2 0.431893 0.0215243 0.205893
1552 1 0.51457 0.129426 0.243038
1572 1 0.528883 0.0582746 0.204245
1677 1 0.464344 0.137433 0.255783
1697 1 0.452069 0.0763102 0.278909
52 2 0.490227 0.0183853 0.258008
1826 1 0.698494 0.0508574 0.147342
2471 1 0.643616 0.0817796 0.1436
551 2 0.602773 0.0286794 0.175861
452 2 0.659915 0.110289 0.20422
472 2 0.670084 0.0225535 0.202761
822 2 0.603637 0.100607 0.251897
1702 1 0.710508 0.140071 0.2494
1722 1 0.693667 0.0822827 0.282443
1952 1 0.639303 0.0424514 0.267859
2552 1 0.576741 0.0403336 0.239151
346 2 0.739503 0.100254 0.185266
2722 1 0.808997 0.084296 0.150865
2952 1 0.763077 0.0523907 0.159234
2496 1 0.821781 0.0751609 0.145538
576 2 0.815541 0.0113398 0.170915
1577 1 0.748287 0.131466 0.241538
1597 1 0.771734 0.0345046 0.214607
2577 1 0.828519 0.0355308 0.243721
2597 1 0.770565 0.0181218 0.211906
477 2 0.8511 0.105472 0.20348
847 2 0.818661 0.109915 0.26048
1977 1 0.802952 0.042612 0.273936
77 2 0.716521 0.0200925 0.258064
2977 1 0.973754 0.0545582 0.17597
2997 1 0.999202 0.00481959 0.176704
371 2 0.939633 0.120724 0.178575
2396 1 0.882119 0.0825268 0.147108
1602 1 0.987946 0.13568 0.237156
1622 1 0.994223 0.0674582 0.230222
377 2 0.921105 0.0916561 0.228688
397 2 0.924391 0.0301792 0.196533
497 2 0.863637 0.0264202 0.217657
1647 1 0.972797 0.0655702 0.280111
1747 1 0.921087 0.0867619 0.282968
1877 1 0.87138 0.0593962 0.285323
102 2 0.949405 0.0105397 0.271302
1481 1 0.0924597 0.173283 0.149099
2727 1 0.0818572 0.143453 0.187143
251 2 0.0398949 0.188653 0.168249
606 2 0.10178 0.265508 0.183097
852 2 0.103726 0.182869 0.271607
632 2 0.120872 0.196297 0.197719
732 2 0.0155234 0.212806 0.218525
1257 1 0.134462 0.242272 0.254937
1357 1 0.0412374 0.207474 0.275468
2507 1 0.134651 0.254887 0.241551
2607 1 0.0409047 0.28222 0.202205
7 2 0.0121098 0.268956 0.266934
276 2 0.255534 0.190219 0.190055
506 2 0.189761 0.255386 0.189623
2907 1 0.255294 0.255873 0.14896
752 2 0.189593 0.190181 0.256342
2782 1 0.25586 0.148477 0.255033
1157 1 0.143121 0.241012 0.240972
1907 1 0.149825 0.255716 0.255531
32 2 0.248515 0.249066 0.248643
1057 1 0.367016 0.144 0.144562
531 2 0.363103 0.25676 0.17835
777 2 0.363275 0.178788 0.256846
657 2 0.322762 0.192544 0.193418
1182 1 0.416398 0.208702 0.208948
1282 1 0.315672 0.224401 0.28373
1932 1 0.389747 0.268601 0.268513
2532 1 0.315133 0.283492 0.223822
301 2 0.477789 0.18218 0.180247
2057 1 0.45738 0.242697 0.150862
2932 1 0.503418 0.25806 0.152512
2182 1 0.457271 0.151628 0.242873
2807 1 0.503294 0.152737 0.25701
57 2 0.483037 0.247592 0.247156
682 2 0.555576 0.188045 0.187635
1307 1 0.562423 0.225639 0.281667
2557 1 0.562041 0.281375 0.225453
1082 1 0.613331 0.147937 0.146494
556 2 0.606206 0.25243 0.177976
2082 1 0.708533 0.24162 0.147084
802 2 0.605976 0.177868 0.252218
2207 1 0.708339 0.147875 0.241698
1207 1 0.662035 0.20931 0.209575
1957 1 0.636909 0.269086 0.269011
326 2 0.716413 0.179249 0.178762
1456 1 0.814711 0.143266 0.144034
2702 1 0.808593 0.14752 0.144118
1107 1 0.81054 0.145974 0.146259
2476 1 0.804956 0.145719 0.144909
2957 1 0.744595 0.253116 0.156416
581 2 0.837731 0.264492 0.176055
2832 1 0.744365 0.156154 0.252449
827 2 0.839886 0.175359 0.260784
82 2 0.721403 0.249118 0.248141
707 2 0.788299 0.196329 0.194793
1332 1 0.803673 0.239491 0.259374
2582 1 0.799491 0.260245 0.240381
1232 1 0.826324 0.229074 0.228874
1982 1 0.841895 0.259025 0.259145
351 2 0.936041 0.188437 0.185735
1007 1 0.886226 0.150425 0.149935
1856 1 0.897886 0.24271 0.156607
2007 1 0.967881 0.239127 0.19139
2107 1 0.913541 0.254754 0.15
1727 1 0.907294 0.152317 0.254182
2132 1 0.95932 0.184794 0.242017
2232 1 0.905407 0.15581 0.257709
107 2 0.922157 0.250115 0.251335
1132 1 0.882424 0.204941 0.207866
2982 1 0.0115805 0.286061 0.182012
2632 1 0.138926 0.360565 0.143482
2732 1 0.0707635 0.31788 0.171681
256 2 0.0287596 0.367264 0.174051
637 2 0.111539 0.416405 0.20026
857 2 0.103283 0.360766 0.24953
1507 1 0.0469826 0.33349 0.23722
2762 1 0.0432081 0.396036 0.266992
1037 1 0.144842 0.366274 0.144542
281 2 0.256514 0.362848 0.178451
757 2 0.178969 0.362866 0.25726
407 2 0.190831 0.322861 0.192891
1532 1 0.283341 0.314878 0.223788
1657 1 0.224825 0.315746 0.283618
2162 1 0.208521 0.416085 0.209105
2787 1 0.26865 0.389836 0.268611
1062 1 0.378159 0.378348 0.153796
2657 1 0.342092 0.342401 0.157432
432 2 0.425139 0.30759 0.191849
662 2 0.307214 0.425483 0.192219
782 2 0.361208 0.361163 0.243511
306 2 0.485892 0.363104 0.175507
687 2 0.546797 0.423393 0.190459
1557 1 0.529339 0.317099 0.218417
1682 1 0.45371 0.330642 0.269885
2187 1 0.440732 0.404509 0.219747
2812 1 0.514905 0.391057 0.268547
1087 1 0.626734 0.377977 0.154554
2682 1 0.591287 0.341627 0.157024
457 2 0.669254 0.304295 0.191036
807 2 0.607577 0.361228 0.243155
1707 1 0.700156 0.332396 0.269187
2212 1 0.687572 0.405543 0.222312
331 2 0.725625 0.360917 0.178374
1461 1 0.822044 0.366018 0.143549
2707 1 0.820755 0.352106 0.145693
1112 1 0.824634 0.367305 0.149451
712 2 0.777441 0.421925 0.190585
1582 1 0.771874 0.314514 0.217168
2837 1 0.755429 0.394006 0.27079
482 2 0.856706 0.323556 0.210742
832 2 0.827211 0.369891 0.258375
356 2 0.935485 0.364506 0.169552
1012 1 0.907503 0.425885 0.177573
1607 1 0.984509 0.340664 0.229609
2862 1 0.984106 0.374504 0.26819
382 2 0.933931 0.301787 0.201992
1732 1 0.908118 0.361696 0.247396
2137 1 0.954401 0.414717 0.213246
2237 1 0.906104 0.36907 0.24442
611 2 0.103444 0.491395 0.181473
2887 1 0.0483391 0.487847 0.144312
2737 1 0.0763576 0.557271 0.175841
737 2 0.0232415 0.431808 0.205882
1262 1 0.137575 0.463553 0.255391
1362 1 0.0765036 0.453705 0.279951
2512 1 0.128055 0.514433 0.243298
2612 1 0.0542756 0.528453 0.202621
12 2 0.0181387 0.489779 0.258633
511 2 0.181656 0.47797 0.18113
2037 1 0.242574 0.456576 0.151768
2912 1 0.257408 0.503524 0.152674
1162 1 0.152771 0.455234 0.242453
1912 1 0.15285 0.503722 0.257449
37 2 0.247538 0.483342 0.247218
412 2 0.186874 0.556546 0.187452
1537 1 0.281436 0.561752 0.225267
1662 1 0.225827 0.562164 0.281829
536 2 0.363298 0.485773 0.175686
437 2 0.422584 0.547607 0.190478
1187 1 0.40455 0.440557 0.219678
1287 1 0.330553 0.453651 0.270063
1937 1 0.391012 0.514901 0.268581
2537 1 0.317143 0.529363 0.218375
2062 1 0.46577 0.465465 0.156347
2937 1 0.502917 0.503325 0.154915
62 2 0.484409 0.484521 0.242493
2562 1 0.565179 0.528833 0.219464
1562 1 0.528931 0.565 0.21942
561 2 0.607471 0.484434 0.17591
2087 1 0.712417 0.468233 0.153883
462 2 0.66806 0.545973 0.19062
1212 1 0.652566 0.440276 0.218664
1312 1 0.578341 0.453977 0.268961
1962 1 0.639033 0.51525 0.26904
2962 1 0.749634 0.497738 0.158586
586 2 0.832793 0.482249 0.177812
87 2 0.725682 0.48513 0.244206
1337 1 0.81652 0.465592 0.25738
2587 1 0.805367 0.518265 0.233521
1237 1 0.849332 0.44538 0.235218
1987 1 0.843562 0.503924 0.264068
1587 1 0.772237 0.560645 0.216761
2361 1 0.984291 0.469864 0.147472
2987 1 0.991743 0.497458 0.18262
1861 1 0.908866 0.49158 0.143245
2012 1 0.940863 0.434562 0.194454
2112 1 0.908772 0.489784 0.15166
112 2 0.92813 0.476979 0.255099
387 2 0.938515 0.534613 0.206415
487 2 0.858301 0.558041 0.202186
1137 1 0.919678 0.430304 0.189053
1491 1 0.0831137 0.640843 0.143474
2266 1 0.0519188 0.69807 0.147627
261 2 0.0278481 0.602748 0.175769
642 2 0.11112 0.659618 0.203624
742 2 0.0245524 0.669857 0.203501
862 2 0.101276 0.604296 0.252547
1267 1 0.139818 0.710491 0.249925
1367 1 0.0814497 0.693491 0.283793
1512 1 0.0418073 0.576472 0.2397
2767 1 0.0426545 0.639313 0.267382
1042 1 0.147938 0.612847 0.146755
286 2 0.252795 0.606094 0.177884
2042 1 0.24034 0.706081 0.150153
762 2 0.178238 0.60556 0.252637
1167 1 0.149264 0.707535 0.240731
2167 1 0.208874 0.662268 0.209014
2792 1 0.26903 0.636893 0.26928
1067 1 0.37774 0.626721 0.15478
2662 1 0.341514 0.59134 0.157144
667 2 0.305078 0.669222 0.192378
787 2 0.36125 0.607509 0.243446
1192 1 0.40496 0.687338 0.223171
1292 1 0.332369 0.700308 0.26939
311 2 0.484732 0.607233 0.175839
2067 1 0.467769 0.71256 0.153326
692 2 0.5456 0.668274 0.190874
1687 1 0.454007 0.578358 0.268942
2192 1 0.440429 0.652353 0.218846
2817 1 0.51515 0.638986 0.269045
1092 1 0.626181 0.626337 0.156235
2092 1 0.713615 0.713629 0.150655
2687 1 0.589826 0.590001 0.156136
812 2 0.607777 0.607828 0.242955
1217 1 0.651736 0.686994 0.221462
1317 1 0.579669 0.701197 0.26815
1712 1 0.701156 0.579704 0.268153
2217 1 0.687089 0.651559 0.221635
336 2 0.725973 0.60484 0.176555
1466 1 0.822206 0.612771 0.143956
2712 1 0.818724 0.597561 0.145432
1117 1 0.824631 0.61473 0.150566
717 2 0.775761 0.66595 0.192002
1342 1 0.817879 0.711962 0.257298
2842 1 0.757395 0.641094 0.271814
837 2 0.829001 0.61111 0.254271
1242 1 0.847045 0.69156 0.235624
2366 1 0.985808 0.704942 0.150843
361 2 0.934994 0.605285 0.175732
1017 1 0.90706 0.668145 0.177906
2017 1 0.941946 0.678096 0.194806
1612 1 0.98091 0.58803 0.229921
2867 1 0.983291 0.621171 0.269293
1142 1 0.915219 0.673099 0.189549
1737 1 0.906939 0.606515 0.245844
2142 1 0.953759 0.661956 0.211271
2242 1 0.904883 0.612873 0.243478
117 2 0.927619 0.713565 0.263496
616 2 0.100056 0.742049 0.186377
2416 1 0.142417 0.808782 0.1467
2742 1 0.0842811 0.820332 0.150909
2892 1 0.0522953 0.758407 0.155956
1496 1 0.0791287 0.815931 0.145012
266 2 0.0146427 0.815668 0.170023
1517 1 0.0417516 0.820009 0.24924
1617 1 0.0199735 0.771876 0.211454
2517 1 0.131523 0.749286 0.241738
2617 1 0.0349169 0.771576 0.213185
17 2 0.0203005 0.717239 0.257846
647 2 0.106131 0.853296 0.205263
867 2 0.107501 0.817065 0.260291
2772 1 0.0352101 0.811327 0.270125
516 2 0.176667 0.717977 0.177834
2917 1 0.253066 0.744993 0.156332
1047 1 0.147024 0.806407 0.144205
1396 1 0.146082 0.809522 0.144661
291 2 0.263268 0.842546 0.175456
1917 1 0.157056 0.745217 0.252938
42 2 0.248919 0.721378 0.24827
417 2 0.196489 0.789936 0.195738
1542 1 0.261016 0.80015 0.237795
1667 1 0.237835 0.803035 0.262907
767 2 0.175641 0.842767 0.264037
2172 1 0.231502 0.827979 0.228057
2797 1 0.259383 0.842255 0.258941
541 2 0.36163 0.725788 0.178149
2441 1 0.366168 0.82215 0.143489
2667 1 0.353484 0.821024 0.146558
1072 1 0.367098 0.824787 0.149081
442 2 0.421981 0.777833 0.190628
1942 1 0.393815 0.755443 0.270474
2542 1 0.314338 0.772002 0.216419
672 2 0.32386 0.856156 0.210557
792 2 0.369222 0.827384 0.259308
2942 1 0.497921 0.749656 0.157869
316 2 0.483309 0.831053 0.176858
67 2 0.485036 0.725596 0.243907
1567 1 0.516589 0.805738 0.235021
1692 1 0.46628 0.816594 0.257353
2567 1 0.561462 0.771897 0.217262
2197 1 0.446166 0.848692 0.234464
2822 1 0.503838 0.843892 0.264306
566 2 0.604514 0.725588 0.176644
2466 1 0.612265 0.822603 0.144171
2692 1 0.597937 0.818742 0.145737
1097 1 0.614388 0.824949 0.1508
467 2 0.665083 0.774913 0.19127
1717 1 0.7116 0.818285 0.258018
1967 1 0.641104 0.757632 0.271543
817 2 0.610978 0.829159 0.254438
2222 1 0.692481 0.84735 0.237279
2717 1 0.817913 0.808604 0.144793
2967 1 0.750186 0.750367 0.170654
591 2 0.827026 0.722512 0.177232
2491 1 0.819786 0.812715 0.14408
341 2 0.720171 0.825966 0.17978
92 2 0.724559 0.724496 0.24567
1592 1 0.767448 0.799061 0.234444
2592 1 0.798024 0.766152 0.234124
1992 1 0.844653 0.748256 0.26769
2847 1 0.749797 0.845348 0.26608
842 2 0.836426 0.83205 0.261917
2117 1 0.901669 0.728798 0.144755
2992 1 0.999088 0.742694 0.186158
1866 1 0.902152 0.728303 0.145471
366 2 0.944827 0.827763 0.181744
1022 1 0.885132 0.840931 0.180512
392 2 0.941007 0.758508 0.207811