ITEM: TIMESTEP
0
ITEM: NUMBER OF ATOMS
32
ITEM: BOX BOUNDS pp pp pp
-4.5700000000000003e+00 1.0029999999999999e+01
-4.5700000000000003e+00 1.0029999999999999e+01
-4.5700000000000003e+00 1.0029999999999999e+01
ITEM: ATOMS id type xs ys zs
1 1 0.313014 0.437671 0.437671
9 1 0.437671 0.437671 0.313014
17 1 0.437671 0.313014 0.437671
25 2 0.313014 0.313014 0.313014
5 1 0.562329 0.437671 0.437671
13 1 0.686986 0.437671 0.313014
21 1 0.686986 0.313014 0.437671
29 2 0.562329 0.313014 0.313014
3 1 0.313014 0.686986 0.437671
11 1 0.437671 0.686986 0.313014
19 1 0.437671 0.562329 0.437671
27 2 0.313014 0.562329 0.313014
7 1 0.562329 0.686986 0.437671
15 1 0.686986 0.686986 0.313014
23 1 0.686986 0.562329 0.437671
31 2 0.562329 0.562329 0.313014
2 1 0.313014 0.437671 0.686986
10 1 0.437671 0.437671 0.562329
18 1 0.437671 0.313014 0.686986
26 2 0.313014 0.313014 0.562329
6 1 0.562329 0.437671 0.686986
14 1 0.686986 0.437671 0.562329
22 1 0.686986 0.313014 0.686986
30 2 0.562329 0.313014 0.562329
4 1 0.313014 0.686986 0.686986
12 1 0.437671 0.686986 0.562329
20 1 0.437671 0.562329 0.686986
28 2 0.313014 0.562329 0.562329
8 1 0.562329 0.686986 0.686986
16 1 0.686986 0.686986 0.562329
24 1 0.686986 0.562329 0.686986
32 2 0.562329 0.562329 0.562329
ITEM: TIMESTEP
73
ITEM: NUMBER OF ATOMS
32
ITEM: BOX BOUNDS pp pp pp
-4.5700000000000003e+00 1.0029999999999999e+01
-4.5700000000000003e+00 1.0029999999999999e+01
-4.5700000000000003e+00 1.0029999999999999e+01
ITEM: ATOMS id type xs ys zs
1 1 0.276267 0.458033 0.458033
9 1 0.458033 0.458033 0.276267
17 1 0.458033 0.276267 0.458033
25 2 0.342414 0.342414 0.342414
5 1 0.556844 0.428069 0.428069
13 1 0.674408 0.429901 0.316839
21 1 0.674408 0.316839 0.429901
29 2 0.542907 0.3074 0.3074
3 1 0.316839 0.674408 0.429901
11 1 0.429901 0.674408 0.316839
19 1 0.428069 0.556844 0.428069
27 2 0.3074 0.542907 0.3074
7 1 0.543253 0.703965 0.434452
15 1 0.689927 0.689927 0.386859
23 1 0.703965 0.543253 0.434452
31 2 0.578857 0.578857 0.321201
2 1 0.316839 0.429901 0.674408
10 1 0.428069 0.428069 0.556844
18 1 0.429901 0.316839 0.674408
26 2 0.3074 0.3074 0.542907
6 1 0.543253 0.434452 0.703965
14 1 0.703965 0.434452 0.543253
22 1 0.689927 0.386859 0.689927
30 2 0.578857 0.321201 0.578857
4 1 0.386859 0.689927 0.689927
12 1 0.434452 0.703965 0.543253
20 1 0.434452 0.543253 0.703965
28 2 0.321201 0.578857 0.578857
8 1 0.54659 0.671356 0.671356
16 1 0.671356 0.671356 0.54659
24 1 0.671356 0.54659 0.671356
32 2 0.553997 0.553997 0.553997
