ITEM: TIMESTEP
0
ITEM: NUMBER OF ATOMS
32
ITEM: BOX BOUNDS pp pp pp
-4.5700000000000003e+00 1.0029999999999999e+01
-4.5700000000000003e+00 1.0029999999999999e+01
-4.5700000000000003e+00 1.0029999999999999e+01
ITEM: ATOMS id type xs ys zs
1 1 0.276267 0.458033 0.458033
9 1 0.458033 0.458033 0.276267
17 1 0.458033 0.276267 0.458033
25 2 0.342414 0.342414 0.342414
5 1 0.556844 0.428069 0.428069
13 1 0.674408 0.429901 0.316839
21 1 0.674408 0.316839 0.429901
29 2 0.542907 0.3074 0.3074
3 1 0.316839 0.674408 0.429901
11 1 0.429901 0.674408 0.316839
19 1 0.428069 0.556844 0.428069
27 2 0.3074 0.542907 0.3074
7 1 0.543253 0.703965 0.434452
15 1 0.689927 0.689927 0.386859
23 1 0.703965 0.543253 0.434452
31 2 0.578857 0.578857 0.321201
2 1 0.316839 0.429901 0.674408
10 1 0.428069 0.428069 0.556844
18 1 0.429901 0.316839 0.674408
26 2 0.3074 0.3074 0.542907
6 1 0.543253 0.434452 0.703965
14 1 0.703965 0.434452 0.543253
22 1 0.689927 0.386859 0.689927
30 2 0.578857 0.321201 0.578857
4 1 0.386859 0.689927 0.689927
12 1 0.434452 0.703965 0.543253
20 1 0.434452 0.543253 0.703965
28 2 0.321201 0.578857 0.578857
8 1 0.54659 0.671356 0.671356
16 1 0.671356 0.671356 0.54659
24 1 0.671356 0.54659 0.671356
32 2 0.553997 0.553997 0.553997
ITEM: TIMESTEP
100
ITEM: NUMBER OF ATOMS
32
ITEM: BOX BOUNDS pp pp pp
-4.5700000000000003e+00 1.0029999999999999e+01
-4.5700000000000003e+00 1.0029999999999999e+01
-4.5700000000000003e+00 1.0029999999999999e+01
ITEM: ATOMS id type xs ys zs
1 1 0.276267 0.458033 0.458033
9 1 0.458033 0.458033 0.276267
17 1 0.458033 0.276267 0.458033
25 2 0.342414 0.342414 0.342414
5 1 0.556844 0.428069 0.428069
13 1 0.674408 0.429901 0.316839
21 1 0.674408 0.316839 0.429901
29 2 0.542907 0.3074 0.3074
3 1 0.316839 0.674408 0.429901
11 1 0.429901 0.674408 0.316839
19 1 0.428069 0.556844 0.428069
27 2 0.3074 0.542907 0.3074
7 1 0.543253 0.703965 0.434452
15 1 0.689927 0.689927 0.386859
23 1 0.703965 0.543253 0.434452
31 2 0.578857 0.578857 0.321201
2 1 0.316839 0.429901 0.674408
10 1 0.428069 0.428069 0.556844
18 1 0.429901 0.316839 0.674408
26 2 0.3074 0.3074 0.542907
6 1 0.543253 0.434452 0.703965
14 1 0.703965 0.434452 0.543253
22 1 0.689927 0.386859 0.689927
30 2 0.578857 0.321201 0.578857
4 1 0.386859 0.689927 0.689927
12 1 0.434452 0.703965 0.543253
20 1 0.434452 0.543253 0.703965
28 2 0.321201 0.578857 0.578857
8 1 0.54659 0.671356 0.671356
16 1 0.671356 0.671356 0.54659
24 1 0.671356 0.54659 0.671356
32 2 0.553997 0.553997 0.553997
ITEM: TIMESTEP
200
ITEM: NUMBER OF ATOMS
32
ITEM: BOX BOUNDS pp pp pp
-4.5700000000000003e+00 1.0029999999999999e+01
-4.5700000000000003e+00 1.0029999999999999e+01
-4.5700000000000003e+00 1.0029999999999999e+01
ITEM: ATOMS id type xs ys zs
1 1 0.276267 0.458033 0.458033
9 1 0.458033 0.458033 0.276267
17 1 0.458033 0.276267 0.458033
25 2 0.342414 0.342414 0.342414
5 1 0.556844 0.428069 0.428069
13 1 0.674408 0.429901 0.316839
21 1 0.674408 0.316839 0.429901
29 2 0.542907 0.3074 0.3074
3 1 0.316839 0.674408 0.429901
11 1 0.429901 0.674408 0.316839
19 1 0.428069 0.556844 0.428069
27 2 0.3074 0.542907 0.3074
7 1 0.543253 0.703965 0.434452
15 1 0.689927 0.689927 0.386859
23 1 0.703965 0.543253 0.434452
31 2 0.578857 0.578857 0.321201
2 1 0.316839 0.429901 0.674408
10 1 0.428069 0.428069 0.556844
18 1 0.429901 0.316839 0.674408
26 2 0.3074 0.3074 0.542907
6 1 0.543253 0.434452 0.703965
14 1 0.703965 0.434452 0.543253
22 1 0.689927 0.386859 0.689927
30 2 0.578857 0.321201 0.578857
4 1 0.386859 0.689927 0.689927
12 1 0.434452 0.703965 0.543253
20 1 0.434452 0.543253 0.703965
28 2 0.321201 0.578857 0.578857
8 1 0.54659 0.671356 0.671356
16 1 0.671356 0.671356 0.54659
24 1 0.671356 0.54659 0.671356
32 2 0.553997 0.553997 0.553997
ITEM: TIMESTEP
300
ITEM: NUMBER OF ATOMS
32
ITEM: BOX BOUNDS pp pp pp
-4.5700000000000003e+00 1.0029999999999999e+01
-4.5700000000000003e+00 1.0029999999999999e+01
-4.5700000000000003e+00 1.0029999999999999e+01
ITEM: ATOMS id type xs ys zs
1 1 0.276267 0.458033 0.458033
9 1 0.458033 0.458033 0.276267
17 1 0.458033 0.276267 0.458033
25 2 0.342414 0.342414 0.342414
5 1 0.556844 0.428069 0.428069
13 1 0.674408 0.429901 0.316839
21 1 0.674408 0.316839 0.429901
29 2 0.542907 0.3074 0.3074
3 1 0.316839 0.674408 0.429901
11 1 0.429901 0.674408 0.316839
19 1 0.428069 0.556844 0.428069
27 2 0.3074 0.542907 0.3074
7 1 0.543253 0.703965 0.434452
15 1 0.689927 0.689927 0.386859
23 1 0.703965 0.543253 0.434452
31 2 0.578857 0.578857 0.321201
2 1 0.316839 0.429901 0.674408
10 1 0.428069 0.428069 0.556844
18 1 0.429901 0.316839 0.674408
26 2 0.3074 0.3074 0.542907
6 1 0.543253 0.434452 0.703965
14 1 0.703965 0.434452 0.543253
22 1 0.689927 0.386859 0.689927
30 2 0.578857 0.321201 0.578857
4 1 0.386859 0.689927 0.689927
12 1 0.434452 0.703965 0.543253
20 1 0.434452 0.543253 0.703965
28 2 0.321201 0.578857 0.578857
8 1 0.54659 0.671356 0.671356
16 1 0.671356 0.671356 0.54659
24 1 0.671356 0.54659 0.671356
32 2 0.553997 0.553997 0.553997
ITEM: TIMESTEP
400
ITEM: NUMBER OF ATOMS
32
ITEM: BOX BOUNDS pp pp pp
-4.5700000000000003e+00 1.0029999999999999e+01
-4.5700000000000003e+00 1.0029999999999999e+01
-4.5700000000000003e+00 1.0029999999999999e+01
ITEM: ATOMS id type xs ys zs
1 1 0.276267 0.458033 0.458033
9 1 0.458033 0.458033 0.276267
17 1 0.458033 0.276267 0.458033
25 2 0.342414 0.342414 0.342414
5 1 0.556844 0.428069 0.428069
13 1 0.674408 0.429901 0.316839
21 1 0.674408 0.316839 0.429901
29 2 0.542907 0.3074 0.3074
3 1 0.316839 0.674408 0.429901
11 1 0.429901 0.674408 0.316839
19 1 0.428069 0.556844 0.428069
27 2 0.3074 0.542907 0.3074
7 1 0.543253 0.703965 0.434452
15 1 0.689927 0.689927 0.386859
23 1 0.703965 0.543253 0.434452
31 2 0.578857 0.578857 0.321201
2 1 0.316839 0.429901 0.674408
10 1 0.428069 0.428069 0.556844
18 1 0.429901 0.316839 0.674408
26 2 0.3074 0.3074 0.542907
6 1 0.543253 0.434452 0.703965
14 1 0.703965 0.434452 0.543253
22 1 0.689927 0.386859 0.689927
30 2 0.578857 0.321201 0.578857
4 1 0.386859 0.689927 0.689927
12 1 0.434452 0.703965 0.543253
20 1 0.434452 0.543253 0.703965
28 2 0.321201 0.578857 0.578857
8 1 0.54659 0.671356 0.671356
16 1 0.671356 0.671356 0.54659
24 1 0.671356 0.54659 0.671356
32 2 0.553997 0.553997 0.553997
ITEM: TIMESTEP
500
ITEM: NUMBER OF ATOMS
32
ITEM: BOX BOUNDS pp pp pp
-4.5700000000000003e+00 1.0029999999999999e+01
-4.5700000000000003e+00 1.0029999999999999e+01
-4.5700000000000003e+00 1.0029999999999999e+01
ITEM: ATOMS id type xs ys zs
1 1 0.276267 0.458033 0.458033
9 1 0.458033 0.458033 0.276267
17 1 0.458033 0.276267 0.458033
25 2 0.342414 0.342414 0.342414
5 1 0.556844 0.428069 0.428069
13 1 0.674408 0.429901 0.316839
21 1 0.674408 0.316839 0.429901
29 2 0.542907 0.3074 0.3074
3 1 0.316839 0.674408 0.429901
11 1 0.429901 0.674408 0.316839
19 1 0.428069 0.556844 0.428069
27 2 0.3074 0.542907 0.3074
7 1 0.543253 0.703965 0.434452
15 1 0.689927 0.689927 0.386859
23 1 0.703965 0.543253 0.434452
31 2 0.578857 0.578857 0.321201
2 1 0.316839 0.429901 0.674408
10 1 0.428069 0.428069 0.556844
18 1 0.429901 0.316839 0.674408
26 2 0.3074 0.3074 0.542907
6 1 0.543253 0.434452 0.703965
14 1 0.703965 0.434452 0.543253
22 1 0.689927 0.386859 0.689927
30 2 0.578857 0.321201 0.578857
4 1 0.386859 0.689927 0.689927
12 1 0.434452 0.703965 0.543253
20 1 0.434452 0.543253 0.703965
28 2 0.321201 0.578857 0.578857
8 1 0.54659 0.671356 0.671356
16 1 0.671356 0.671356 0.54659
24 1 0.671356 0.54659 0.671356
32 2 0.553997 0.553997 0.553997
ITEM: TIMESTEP
600
ITEM: NUMBER OF ATOMS
32
ITEM: BOX BOUNDS pp pp pp
-4.5700000000000003e+00 1.0029999999999999e+01
-4.5700000000000003e+00 1.0029999999999999e+01
-4.5700000000000003e+00 1.0029999999999999e+01
ITEM: ATOMS id type xs ys zs
1 1 0.276267 0.458033 0.458033
9 1 0.458033 0.458033 0.276267
17 1 0.458033 0.276267 0.458033
25 2 0.342414 0.342414 0.342414
5 1 0.556844 0.428069 0.428069
13 1 0.674408 0.429901 0.316839
21 1 0.674408 0.316839 0.429901
29 2 0.542907 0.3074 0.3074
3 1 0.316839 0.674408 0.429901
11 1 0.429901 0.674408 0.316839
19 1 0.428069 0.556844 0.428069
27 2 0.3074 0.542907 0.3074
7 1 0.543253 0.703965 0.434452
15 1 0.689927 0.689927 0.386859
23 1 0.703965 0.543253 0.434452
31 2 0.578857 0.578857 0.321201
2 1 0.316839 0.429901 0.674408
10 1 0.428069 0.428069 0.556844
18 1 0.429901 0.316839 0.674408
26 2 0.3074 0.3074 0.542907
6 1 0.543253 0.434452 0.703965
14 1 0.703965 0.434452 0.543253
22 1 0.689927 0.386859 0.689927
30 2 0.578857 0.321201 0.578857
4 1 0.386859 0.689927 0.689927
12 1 0.434452 0.703965 0.543253
20 1 0.434452 0.543253 0.703965
28 2 0.321201 0.578857 0.578857
8 1 0.54659 0.671356 0.671356
16 1 0.671356 0.671356 0.54659
24 1 0.671356 0.54659 0.671356
32 2 0.553997 0.553997 0.553997
ITEM: TIMESTEP
700
ITEM: NUMBER OF ATOMS
32
ITEM: BOX BOUNDS pp pp pp
-4.5700000000000003e+00 1.0029999999999999e+01
-4.5700000000000003e+00 1.0029999999999999e+01
-4.5700000000000003e+00 1.0029999999999999e+01
ITEM: ATOMS id type xs ys zs
1 1 0.276267 0.458033 0.458033
9 1 0.458033 0.458033 0.276267
17 1 0.458033 0.276267 0.458033
25 2 0.342414 0.342414 0.342414
5 1 0.556844 0.428069 0.428069
13 1 0.674408 0.429901 0.316839
21 1 0.674408 0.316839 0.429901
29 2 0.542907 0.3074 0.3074
3 1 0.316839 0.674408 0.429901
11 1 0.429901 0.674408 0.316839
19 1 0.428069 0.556844 0.428069
27 2 0.3074 0.542907 0.3074
7 1 0.543253 0.703965 0.434452
15 1 0.689927 0.689927 0.386859
23 1 0.703965 0.543253 0.434452
31 2 0.578857 0.578857 0.321201
2 1 0.316839 0.429901 0.674408
10 1 0.428069 0.428069 0.556844
18 1 0.429901 0.316839 0.674408
26 2 0.3074 0.3074 0.542907
6 1 0.543253 0.434452 0.703965
14 1 0.703965 0.434452 0.543253
22 1 0.689927 0.386859 0.689927
30 2 0.578857 0.321201 0.578857
4 1 0.386859 0.689927 0.689927
12 1 0.434452 0.703965 0.543253
20 1 0.434452 0.543253 0.703965
28 2 0.321201 0.578857 0.578857
8 1 0.54659 0.671356 0.671356
16 1 0.671356 0.671356 0.54659
24 1 0.671356 0.54659 0.671356
32 2 0.553997 0.553997 0.553997
ITEM: TIMESTEP
800
ITEM: NUMBER OF ATOMS
32
ITEM: BOX BOUNDS pp pp pp
-4.5700000000000003e+00 1.0029999999999999e+01
-4.5700000000000003e+00 1.0029999999999999e+01
-4.5700000000000003e+00 1.0029999999999999e+01
ITEM: ATOMS id type xs ys zs
1 1 0.276267 0.458033 0.458033
9 1 0.458033 0.458033 0.276267
17 1 0.458033 0.276267 0.458033
25 2 0.342414 0.342414 0.342414
5 1 0.556844 0.428069 0.428069
13 1 0.674408 0.429901 0.316839
21 1 0.674408 0.316839 0.429901
29 2 0.542907 0.3074 0.3074
3 1 0.316839 0.674408 0.429901
11 1 0.429901 0.674408 0.316839
19 1 0.428069 0.556844 0.428069
27 2 0.3074 0.542907 0.3074
7 1 0.543253 0.703965 0.434452
15 1 0.689927 0.689927 0.386859
23 1 0.703965 0.543253 0.434452
31 2 0.578857 0.578857 0.321201
2 1 0.316839 0.429901 0.674408
10 1 0.428069 0.428069 0.556844
18 1 0.429901 0.316839 0.674408
26 2 0.3074 0.3074 0.542907
6 1 0.543253 0.434452 0.703965
14 1 0.703965 0.434452 0.543254
22 1 0.689927 0.386859 0.689928
30 2 0.578857 0.321202 0.578856
4 1 0.386859 0.689927 0.689927
12 1 0.434452 0.703965 0.543253
20 1 0.434452 0.543253 0.703965
28 2 0.321201 0.578857 0.578857
8 1 0.54659 0.671356 0.671356
16 1 0.671356 0.671356 0.54659
24 1 0.671357 0.54659 0.671357
32 2 0.553997 0.553997 0.553998
ITEM: TIMESTEP
900
ITEM: NUMBER OF ATOMS
32
ITEM: BOX BOUNDS pp pp pp
-4.5700000000000003e+00 1.0029999999999999e+01
-4.5700000000000003e+00 1.0029999999999999e+01
-4.5700000000000003e+00 1.0029999999999999e+01
ITEM: ATOMS id type xs ys zs
1 1 0.276267 0.458033 0.458033
9 1 0.458033 0.458033 0.276267
17 1 0.458033 0.276267 0.458033
25 2 0.342414 0.342414 0.342414
5 1 0.556844 0.42807 0.428068
13 1 0.674408 0.429901 0.316838
21 1 0.674408 0.316839 0.429901
29 2 0.542907 0.3074 0.3074
3 1 0.316839 0.674408 0.429901
11 1 0.429901 0.674408 0.316838
19 1 0.42807 0.556845 0.428069
27 2 0.3074 0.542907 0.3074
7 1 0.543253 0.703964 0.434452
15 1 0.689927 0.689927 0.386859
23 1 0.703964 0.543253 0.434452
31 2 0.578857 0.578857 0.3212
2 1 0.316839 0.429901 0.674408
10 1 0.428068 0.428069 0.556843
18 1 0.429901 0.316839 0.674407
26 2 0.307399 0.307399 0.542907
6 1 0.543254 0.434452 0.703966
14 1 0.703966 0.434452 0.543254
22 1 0.689928 0.386859 0.689928
30 2 0.578856 0.321203 0.578856
4 1 0.386859 0.689927 0.689928
12 1 0.434452 0.703965 0.543254
20 1 0.434452 0.543253 0.703965
28 2 0.321202 0.578857 0.578856
8 1 0.54659 0.671356 0.671357
16 1 0.671356 0.671356 0.54659
24 1 0.671357 0.54659 0.671357
32 2 0.553997 0.553996 0.553999
ITEM: TIMESTEP
1000
ITEM: NUMBER OF ATOMS
32
ITEM: BOX BOUNDS pp pp pp
-4.5700000000000003e+00 1.0029999999999999e+01
-4.5700000000000003e+00 1.0029999999999999e+01
-4.5700000000000003e+00 1.0029999999999999e+01
ITEM: ATOMS id type xs ys zs
1 1 0.276267 0.458033 0.458033
9 1 0.458033 0.458033 0.276267
17 1 0.458033 0.276267 0.458033
25 2 0.342414 0.342414 0.342414
5 1 0.556844 0.428073 0.428065
13 1 0.674408 0.429901 0.316836
21 1 0.674408 0.316841 0.429901
29 2 0.542907 0.307399 0.3074
3 1 0.316839 0.674408 0.429901
11 1 0.429901 0.674409 0.316837
19 1 0.428073 0.556847 0.428069
27 2 0.307401 0.542907 0.307401
7 1 0.543253 0.703959 0.434452
15 1 0.689926 0.689926 0.38686
23 1 0.70396 0.543252 0.434452
31 2 0.578857 0.578858 0.321195
2 1 0.316838 0.429902 0.674407
10 1 0.428065 0.428069 0.55684
18 1 0.429902 0.316841 0.674407
26 2 0.307398 0.307398 0.542907
6 1 0.543254 0.434452 0.70397
14 1 0.703969 0.434452 0.543255
22 1 0.689928 0.386859 0.689929
30 2 0.578856 0.321207 0.578855
4 1 0.386859 0.689927 0.689928
12 1 0.434453 0.703965 0.543254
20 1 0.434451 0.543253 0.703966
28 2 0.321202 0.578857 0.578856
8 1 0.54659 0.671356 0.671357
16 1 0.671354 0.671354 0.54659
24 1 0.671358 0.54659 0.671359
32 2 0.553997 0.553993 0.554002
ITEM: TIMESTEP
1100
ITEM: NUMBER OF ATOMS
32
ITEM: BOX BOUNDS pp pp pp
-4.5700000000000003e+00 1.0029999999999999e+01
-4.5700000000000003e+00 1.0029999999999999e+01
-4.5700000000000003e+00 1.0029999999999999e+01
ITEM: ATOMS id type xs ys zs
1 1 0.276267 0.458032 0.458034
9 1 0.458033 0.458032 0.276268
17 1 0.458032 0.276266 0.458034
25 2 0.342414 0.342413 0.342415
5 1 0.556845 0.428086 0.428054
13 1 0.674408 0.4299 0.316829
21 1 0.674408 0.316848 0.429902
29 2 0.542907 0.307398 0.307402
3 1 0.316841 0.674411 0.4299
11 1 0.429899 0.674411 0.31683
19 1 0.428086 0.556858 0.428068
27 2 0.307403 0.542907 0.307406
7 1 0.54325 0.703943 0.434453
15 1 0.689924 0.689921 0.386861
23 1 0.703945 0.543247 0.434451
31 2 0.578859 0.578861 0.321176
2 1 0.316838 0.429902 0.674404
10 1 0.428054 0.428067 0.556829
18 1 0.429903 0.316846 0.674404
26 2 0.307395 0.307393 0.542907
6 1 0.543256 0.43445 0.703985
14 1 0.703982 0.434453 0.54326
22 1 0.68993 0.386858 0.689933
30 2 0.578855 0.321224 0.578852
4 1 0.386859 0.689925 0.689931
12 1 0.434455 0.703964 0.543257
20 1 0.434449 0.54325 0.70397
28 2 0.321204 0.578858 0.578854
8 1 0.54659 0.671355 0.671359
16 1 0.671348 0.671347 0.546591
24 1 0.671363 0.54659 0.671365
32 2 0.553995 0.553979 0.554017
ITEM: TIMESTEP
1200
ITEM: NUMBER OF ATOMS
32
ITEM: BOX BOUNDS pp pp pp
-4.5700000000000003e+00 1.0029999999999999e+01
-4.5700000000000003e+00 1.0029999999999999e+01
-4.5700000000000003e+00 1.0029999999999999e+01
ITEM: ATOMS id type xs ys zs
1 1 0.276266 0.458027 0.458039
9 1 0.458034 0.458029 0.276271
17 1 0.458031 0.276262 0.458038
25 2 0.342414 0.34241 0.342418
5 1 0.556849 0.428136 0.428009
13 1 0.674411 0.429898 0.316799
21 1 0.674407 0.316876 0.429904
29 2 0.542907 0.307394 0.30741
3 1 0.316848 0.674419 0.429897
11 1 0.429894 0.674421 0.316804
19 1 0.428137 0.556898 0.428065
27 2 0.307415 0.542906 0.307424
7 1 0.543241 0.703877 0.434457
15 1 0.689912 0.689903 0.386864
23 1 0.703887 0.543229 0.434448
31 2 0.578866 0.578873 0.321101
2 1 0.316836 0.429906 0.674395
10 1 0.428007 0.428061 0.556784
18 1 0.429909 0.316869 0.674393
26 2 0.307381 0.307374 0.542908
6 1 0.543262 0.434445 0.704047
14 1 0.704034 0.434458 0.543279
22 1 0.689939 0.386855 0.689951
30 2 0.578849 0.321292 0.57884
4 1 0.386859 0.689919 0.68994
12 1 0.434463 0.703962 0.54327
20 1 0.434441 0.54324 0.703984
28 2 0.321211 0.578864 0.578847
8 1 0.54659 0.671353 0.671367
16 1 0.671325 0.671319 0.546592
24 1 0.671384 0.546588 0.671392
32 2 0.55399 0.553925 0.554077
ITEM: TIMESTEP
1300
ITEM: NUMBER OF ATOMS
32
ITEM: BOX BOUNDS pp pp pp
-4.5700000000000003e+00 1.0029999999999999e+01
-4.5700000000000003e+00 1.0029999999999999e+01
-4.5700000000000003e+00 1.0029999999999999e+01
ITEM: ATOMS id type xs ys zs
1 1 0.276263 0.45801 0.458056
9 1 0.458035 0.458016 0.276285
17 1 0.458026 0.276249 0.458052
25 2 0.342412 0.342399 0.342431
5 1 0.556864 0.428336 0.427827
13 1 0.674419 0.429888 0.31668
21 1 0.674406 0.31699 0.429911
29 2 0.542906 0.307375 0.30744
3 1 0.316878 0.674454 0.429886
11 1 0.429873 0.674461 0.316702
19 1 0.428341 0.55706 0.428051
27 2 0.307461 0.542904 0.307499
7 1 0.543206 0.703615 0.434472
15 1 0.689867 0.68983 0.386877
23 1 0.703651 0.543154 0.434435
31 2 0.578896 0.578924 0.320799
2 1 0.316828 0.429921 0.674355
10 1 0.427817 0.428036 0.556599
18 1 0.429932 0.316962 0.674349
26 2 0.307324 0.307296 0.54291
6 1 0.54329 0.434425 0.704297
14 1 0.704244 0.434477 0.543356
22 1 0.689976 0.386843 0.690024
30 2 0.578827 0.321568 0.578789
4 1 0.386858 0.689892 0.689977
12 1 0.434497 0.703951 0.543319
20 1 0.434408 0.543201 0.70404
28 2 0.321239 0.578885 0.578818
8 1 0.54659 0.671341 0.671397
16 1 0.671228 0.671204 0.546599
24 1 0.671468 0.546583 0.6715
32 2 0.553967 0.553704 0.55432
ITEM: TIMESTEP
1400
ITEM: NUMBER OF ATOMS
32
ITEM: BOX BOUNDS pp pp pp
-4.5700000000000003e+00 1.0029999999999999e+01
-4.5700000000000003e+00 1.0029999999999999e+01
-4.5700000000000003e+00 1.0029999999999999e+01
ITEM: ATOMS id type xs ys zs
1 1 0.276225 0.457933 0.458119
9 1 0.458041 0.457964 0.276332
17 1 0.458002 0.276181 0.458111
25 2 0.342408 0.342353 0.342483
5 1 0.556896 0.429137 0.42708
13 1 0.674449 0.429854 0.316208
21 1 0.674397 0.317462 0.429946
29 2 0.542906 0.3073 0.307565
3 1 0.317004 0.67459 0.429842
11 1 0.429801 0.674618 0.316305
19 1 0.429146 0.557687 0.427991
27 2 0.307646 0.542896 0.307798
7 1 0.543086 0.702589 0.434527
15 1 0.689695 0.689533 0.386924
23 1 0.702708 0.542857 0.434393
31 2 0.579013 0.579133 0.319583
2 1 0.316808 0.429985 0.674188
10 1 0.427025 0.427924 0.555812
18 1 0.430037 0.317364 0.674163
26 2 0.30709 0.306977 0.542922
6 1 0.543427 0.434334 0.70535
14 1 0.705102 0.434563 0.543673
22 1 0.690133 0.386788 0.690315
30 2 0.578734 0.322692 0.578586
4 1 0.386857 0.68978 0.690124
12 1 0.434639 0.703912 0.543509
20 1 0.434277 0.543033 0.704277
28 2 0.321358 0.578969 0.578701
8 1 0.546588 0.671289 0.671518
16 1 0.67084 0.670735 0.546626
24 1 0.671809 0.546562 0.671933
32 2 0.553868 0.552807 0.555296
ITEM: TIMESTEP
1500
ITEM: NUMBER OF ATOMS
32
ITEM: BOX BOUNDS pp pp pp
-4.5700000000000003e+00 1.0029999999999999e+01
-4.5700000000000003e+00 1.0029999999999999e+01
-4.5700000000000003e+00 1.0029999999999999e+01
ITEM: ATOMS id type xs ys zs
1 1 0.275671 0.457521 0.458259
9 1 0.458028 0.457755 0.276389
17 1 0.457856 0.275728 0.458331
25 2 0.342395 0.342181 0.34271
5 1 0.556611 0.432142 0.424014
13 1 0.674507 0.429808 0.314507
21 1 0.674315 0.319551 0.430182
29 2 0.542908 0.30699 0.308066
3 1 0.317599 0.67511 0.429693
11 1 0.429673 0.675175 0.314985
19 1 0.431968 0.559801 0.427652
27 2 0.308342 0.542877 0.308961
7 1 0.542893 0.699097 0.434641
15 1 0.689153 0.688318 0.387053
23 1 0.699124 0.541665 0.434358
31 2 0.579458 0.579986 0.314954
2 1 0.316933 0.430323 0.673383
10 1 0.423558 0.427275 0.551843
18 1 0.430685 0.319407 0.673274
26 2 0.306072 0.305614 0.542993
6 1 0.544496 0.433876 0.710156
14 1 0.708658 0.435049 0.545145
22 1 0.690923 0.386489 0.691476
30 2 0.578318 0.327186 0.577824
4 1 0.3869 0.689278 0.690676
12 1 0.435281 0.703804 0.544173
20 1 0.43385 0.542248 0.705336
28 2 0.321932 0.579273 0.578217
8 1 0.546587 0.671019 0.671964
16 1 0.669325 0.668815 0.546759
24 1 0.67318 0.546497 0.673601
32 2 0.553344 0.549321 0.559021
ITEM: TIMESTEP
1600
ITEM: NUMBER OF ATOMS
32
ITEM: BOX BOUNDS pp pp pp
-4.5700000000000003e+00 1.0029999999999999e+01
-4.5700000000000003e+00 1.0029999999999999e+01
-4.5700000000000003e+00 1.0029999999999999e+01
ITEM: ATOMS id type xs ys zs
1 1 0.266096 0.454272 0.456995
9 1 0.457491 0.45694 0.274753
17 1 0.457067 0.27136 0.458887
25 2 0.342514 0.341915 0.344084
5 1 0.551474 0.439873 0.414885
13 1 0.673477 0.430525 0.310688
21 1 0.673691 0.329363 0.432449
29 2 0.543026 0.305835 0.310017
3 1 0.320169 0.677022 0.429401
11 1 0.430428 0.677041 0.311933
19 1 0.438843 0.565689 0.425262
27 2 0.310201 0.54293 0.312913
7 1 0.544304 0.693908 0.433912
15 1 0.689261 0.682801 0.387165
23 1 0.68858 0.53612 0.436485
31 2 0.580552 0.582875 0.303206
2 1 0.321601 0.432967 0.666683
10 1 0.412872 0.423296 0.524436
18 1 0.434617 0.330282 0.668523
26 2 0.301585 0.299839 0.543944
6 1 0.554742 0.43457 0.726897
14 1 0.719659 0.438284 0.553743
22 1 0.695664 0.383862 0.695189
30 2 0.57687 0.33865 0.576367
4 1 0.387487 0.686636 0.692598
12 1 0.438141 0.704695 0.545945
20 1 0.434666 0.539825 0.71282
28 2 0.325998 0.57913 0.576267
8 1 0.546776 0.669866 0.673907
16 1 0.664736 0.66185 0.547301
24 1 0.676904 0.546177 0.677955
32 2 0.54845 0.541774 0.568891
ITEM: TIMESTEP
1700
ITEM: NUMBER OF ATOMS
32
ITEM: BOX BOUNDS pp pp pp
-4.5700000000000003e+00 1.0029999999999999e+01
-4.5700000000000003e+00 1.0029999999999999e+01
-4.5700000000000003e+00 1.0029999999999999e+01
ITEM: ATOMS id type xs ys zs
1 1 0.229588 0.43791 0.454569
9 1 0.455745 0.452491 0.263151
17 1 0.451762 0.244346 0.466232
25 2 0.342784 0.342423 0.353953
5 1 0.545144 0.453173 0.404483
13 1 0.665457 0.436184 0.300466
21 1 0.679178 0.358963 0.436476
29 2 0.543827 0.305025 0.319753
3 1 0.323875 0.679533 0.42988
11 1 0.432651 0.686157 0.305184
19 1 0.451651 0.582796 0.421304
27 2 0.31169 0.543441 0.327636
7 1 0.555751 0.70901 0.42666
15 1 0.699018 0.665453 0.388345
23 1 0.681304 0.523096 0.441918
31 2 0.581294 0.588651 0.29519
2 1 0.319789 0.43106 0.64714
10 1 0.410901 0.419783 0.497408
18 1 0.437307 0.333379 0.657035
26 2 0.298184 0.294852 0.546355
6 1 0.554413 0.43941 0.714383
14 1 0.725938 0.445057 0.566239
22 1 0.695788 0.376552 0.698102
30 2 0.581578 0.339492 0.572161
4 1 0.386278 0.684725 0.692066
12 1 0.450055 0.70592 0.549083
20 1 0.436385 0.544738 0.72497
28 2 0.337448 0.573811 0.56483
8 1 0.549778 0.67256 0.681807
16 1 0.659566 0.649962 0.549018
24 1 0.674169 0.546218 0.678216
32 2 0.534753 0.54159 0.576876
ITEM: TIMESTEP
1800
ITEM: NUMBER OF ATOMS
32
ITEM: BOX BOUNDS pp pp pp
-4.5700000000000003e+00 1.0029999999999999e+01
-4.5700000000000003e+00 1.0029999999999999e+01
-4.5700000000000003e+00 1.0029999999999999e+01
ITEM: ATOMS id type xs ys zs
1 1 0.256611 0.440155 0.481288
9 1 0.450394 0.437489 0.269022
17 1 0.446957 0.245621 0.486993
25 2 0.349523 0.336864 0.358042
5 1 0.533986 0.469 0.404485
13 1 0.637889 0.440356 0.285999
21 1 0.698789 0.366365 0.417128
29 2 0.545624 0.303913 0.353263
3 1 0.329643 0.708113 0.427892
11 1 0.431047 0.692161 0.305351
19 1 0.460473 0.611169 0.428734
27 2 0.318891 0.542195 0.353564
7 1 0.570368 0.734235 0.403488
15 1 0.7108 0.671911 0.385851
23 1 0.681496 0.526629 0.43482
31 2 0.579569 0.602239 0.300328
2 1 0.303525 0.431285 0.648758
10 1 0.422178 0.40927 0.525438
18 1 0.435496 0.299092 0.640924
26 2 0.293084 0.287614 0.54732
6 1 0.522298 0.416873 0.707334
14 1 0.723135 0.444865 0.566314
22 1 0.6707 0.377946 0.696521
30 2 0.590114 0.326614 0.549576
4 1 0.383081 0.689751 0.663433
12 1 0.476461 0.711029 0.540827
20 1 0.411921 0.537601 0.694871
28 2 0.322589 0.577622 0.54959
8 1 0.544426 0.664314 0.675909
16 1 0.659776 0.662535 0.54437
24 1 0.662551 0.541798 0.686325
32 2 0.547632 0.535584 0.568539
ITEM: TIMESTEP
1900
ITEM: NUMBER OF ATOMS
32
ITEM: BOX BOUNDS pp pp pp
-4.5700000000000003e+00 1.0029999999999999e+01
-4.5700000000000003e+00 1.0029999999999999e+01
-4.5700000000000003e+00 1.0029999999999999e+01
ITEM: ATOMS id type xs ys zs
17 1 0.443902 0.225678 0.485905
1 1 0.247318 0.437707 0.478467
9 1 0.460856 0.435041 0.266769
25 2 0.348342 0.335441 0.368814
5 1 0.501965 0.473808 0.407759
13 1 0.623565 0.440501 0.298514
21 1 0.70665 0.3669 0.411637
29 2 0.554914 0.294752 0.35837
3 1 0.332588 0.708541 0.427227
11 1 0.429134 0.690055 0.294305
19 1 0.467304 0.629715 0.433167
27 2 0.334087 0.544412 0.349991
7 1 0.561175 0.751737 0.39941
15 1 0.701903 0.685303 0.385791
23 1 0.673899 0.532862 0.424049
31 2 0.582038 0.611826 0.299314
2 1 0.308894 0.428904 0.636154
10 1 0.420266 0.390269 0.531797
18 1 0.433475 0.273208 0.637615
26 2 0.282397 0.273636 0.554214
6 1 0.506477 0.410227 0.675653
14 1 0.71405 0.450403 0.557834
22 1 0.661087 0.378173 0.6937
30 2 0.593287 0.320602 0.553513
4 1 0.395136 0.698498 0.662426
12 1 0.496516 0.729498 0.54758
20 1 0.420111 0.543872 0.692618
28 2 0.325219 0.593708 0.552627
8 1 0.545414 0.649611 0.682427
16 1 0.637568 0.682898 0.53059
24 1 0.658965 0.532214 0.69469
32 2 0.551424 0.533038 0.564872
ITEM: TIMESTEP
2000
ITEM: NUMBER OF ATOMS
32
ITEM: BOX BOUNDS pp pp pp
-4.5700000000000003e+00 1.0029999999999999e+01
-4.5700000000000003e+00 1.0029999999999999e+01
-4.5700000000000003e+00 1.0029999999999999e+01
ITEM: ATOMS id type xs ys zs
17 1 0.44717 0.227795 0.471625
1 1 0.261176 0.448919 0.481824
9 1 0.454113 0.411856 0.251996
25 2 0.356445 0.33982 0.374317
5 1 0.503879 0.472911 0.393637
13 1 0.620045 0.443198 0.298923
21 1 0.692481 0.364256 0.43432
29 2 0.551791 0.300221 0.347616
3 1 0.308909 0.695104 0.408383
11 1 0.427341 0.696062 0.291401
19 1 0.456559 0.639323 0.435478
27 2 0.345635 0.541489 0.343247
7 1 0.555684 0.751948 0.394524
15 1 0.697239 0.683301 0.378103
23 1 0.665056 0.534608 0.436093
31 2 0.575969 0.608585 0.298057
2 1 0.308979 0.447365 0.6268
10 1 0.426287 0.390057 0.539262
18 1 0.444215 0.245867 0.630769
26 2 0.289101 0.281755 0.555805
6 1 0.49618 0.402766 0.69077
14 1 0.706073 0.447971 0.56929
22 1 0.656395 0.371695 0.697329
30 2 0.585283 0.31446 0.557319
4 1 0.397653 0.696773 0.688683
12 1 0.486698 0.726418 0.559656
20 1 0.425054 0.548777 0.703155
28 2 0.342074 0.591939 0.55335
8 1 0.562815 0.658757 0.679327
16 1 0.627228 0.687176 0.527249
24 1 0.655934 0.527644 0.693589
32 2 0.546597 0.537313 0.563503
ITEM: TIMESTEP
2100
ITEM: NUMBER OF ATOMS
32
ITEM: BOX BOUNDS pp pp pp
-4.5700000000000003e+00 1.0029999999999999e+01
-4.5700000000000003e+00 1.0029999999999999e+01
-4.5700000000000003e+00 1.0029999999999999e+01
ITEM: ATOMS id type xs ys zs
17 1 0.442405 0.227813 0.474284
1 1 0.274615 0.452098 0.482239
9 1 0.470757 0.430977 0.257744
25 2 0.353791 0.339813 0.367809
5 1 0.504561 0.475505 0.403735
13 1 0.633447 0.446879 0.293309
21 1 0.698032 0.372461 0.414841
29 2 0.55516 0.299817 0.351871
3 1 0.292716 0.681741 0.396717
11 1 0.418733 0.702842 0.290494
19 1 0.453129 0.638887 0.428453
27 2 0.34633 0.536387 0.332953
7 1 0.557038 0.755115 0.398787
15 1 0.694297 0.677646 0.377757
23 1 0.664663 0.527947 0.431621
31 2 0.563893 0.605572 0.294873
2 1 0.310373 0.450421 0.648214
10 1 0.424182 0.406642 0.53519
18 1 0.442432 0.251542 0.634773
26 2 0.299653 0.297776 0.563104
6 1 0.49151 0.390609 0.688438
14 1 0.704373 0.43998 0.571712
22 1 0.647715 0.368844 0.707405
30 2 0.5857 0.316716 0.550623
4 1 0.398395 0.686658 0.687066
12 1 0.481654 0.721668 0.551525
20 1 0.427273 0.536974 0.706944
28 2 0.344038 0.601134 0.552332
8 1 0.555798 0.654114 0.682555
16 1 0.631604 0.675335 0.524544
24 1 0.650264 0.520596 0.708414
32 2 0.548629 0.527241 0.574902
ITEM: TIMESTEP
2200
ITEM: NUMBER OF ATOMS
32
ITEM: BOX BOUNDS pp pp pp
-4.5700000000000003e+00 1.0029999999999999e+01
-4.5700000000000003e+00 1.0029999999999999e+01
-4.5700000000000003e+00 1.0029999999999999e+01
ITEM: ATOMS id type xs ys zs
17 1 0.448453 0.239123 0.480335
1 1 0.260092 0.455356 0.470575
9 1 0.476739 0.43594 0.243594
25 2 0.353837 0.337774 0.370821
5 1 0.507495 0.473162 0.404535
13 1 0.638725 0.442022 0.303547
21 1 0.708294 0.362752 0.431645
29 2 0.560535 0.30375 0.346964
3 1 0.301656 0.684762 0.410269
11 1 0.412164 0.706299 0.291666
19 1 0.447543 0.631104 0.440812
27 2 0.351998 0.540741 0.320769
7 1 0.546635 0.738934 0.401505
15 1 0.681393 0.668779 0.370286
23 1 0.665234 0.52615 0.437079
31 2 0.547135 0.601953 0.29256
2 1 0.31287 0.454159 0.636269
10 1 0.425075 0.398443 0.53002
18 1 0.446319 0.247234 0.633766
26 2 0.29266 0.299879 0.564373
6 1 0.485116 0.403032 0.678055
14 1 0.717023 0.445615 0.571888
22 1 0.640694 0.369691 0.693205
30 2 0.589376 0.316249 0.550741
4 1 0.394978 0.703158 0.675761
12 1 0.492069 0.715603 0.564214
20 1 0.424682 0.55178 0.707578
28 2 0.335721 0.601006 0.557224
8 1 0.556651 0.645131 0.697705
16 1 0.640325 0.669257 0.523511
24 1 0.666343 0.522227 0.713056
32 2 0.557268 0.524273 0.580418
ITEM: TIMESTEP
2300
ITEM: NUMBER OF ATOMS
32
ITEM: BOX BOUNDS pp pp pp
-4.5700000000000003e+00 1.0029999999999999e+01
-4.5700000000000003e+00 1.0029999999999999e+01
-4.5700000000000003e+00 1.0029999999999999e+01
ITEM: ATOMS id type xs ys zs
17 1 0.44553 0.222387 0.464955
1 1 0.278117 0.456418 0.480255
9 1 0.470454 0.41784 0.250842
25 2 0.362876 0.348008 0.368911
5 1 0.506293 0.461993 0.40564
13 1 0.639887 0.455017 0.308127
21 1 0.704675 0.361685 0.428952
29 2 0.560777 0.303044 0.34741
3 1 0.299137 0.672827 0.42027
11 1 0.417818 0.713371 0.323307
19 1 0.450735 0.618195 0.437847
27 2 0.342987 0.544552 0.314891
7 1 0.550961 0.738522 0.402674
15 1 0.676131 0.66215 0.356955
23 1 0.670844 0.530042 0.446057
31 2 0.548569 0.59308 0.283653
2 1 0.315336 0.445304 0.632953
10 1 0.43036 0.400029 0.534123
18 1 0.43522 0.260495 0.620694
26 2 0.286317 0.290826 0.549779
6 1 0.467751 0.399183 0.689502
14 1 0.709776 0.437806 0.576763
22 1 0.624203 0.404135 0.702879
30 2 0.587714 0.312175 0.553977
4 1 0.400992 0.705939 0.684463
12 1 0.506836 0.700864 0.562239
20 1 0.41899 0.550516 0.721679
28 2 0.343119 0.598905 0.570168
8 1 0.549882 0.650838 0.703473
16 1 0.652231 0.672828 0.506043
24 1 0.683714 0.555492 0.693967
32 2 0.55314 0.533678 0.580822
ITEM: TIMESTEP
2400
ITEM: NUMBER OF ATOMS
32
ITEM: BOX BOUNDS pp pp pp
-4.5700000000000003e+00 1.0029999999999999e+01