LAMMPS data file. CGCMM style. atom_style full generated by VMD/TopoTools v1.5 on Mon Dec 01 13:10:27 MSK 2025
 766 atoms
 1404 bonds
 0 angles
 0 dihedrals
 0 impropers
 2 atom types
 1 bond types
 0 angle types
 0 dihedral types
 0 improper types
 -0.025500 20.374500  xlo xhi
 -0.025500 20.374500  ylo yhi
 -0.025500 20.374500  zlo zhi

# Pair Coeffs
#
# 1  Co
# 2  Ta

# Bond Coeffs
#
# 1  

 Masses

 1 58.933201 # Co
 2 180.947906 # Ta

 Atoms

1 1 2 0.000000 2.543625 2.543625 2.543625 # Ta 
2 1 2 0.000000 17.805376 17.805376 17.805376 # Ta 
3 1 2 0.000000 2.543625 19.501125 5.935125 # Ta 
4 1 2 0.000000 4.239375 7.630875 0.847875 # Ta 
5 1 2 0.000000 19.501125 5.935125 2.543625 # Ta 
6 1 2 0.000000 7.630875 0.847875 4.239375 # Ta 
7 1 2 0.000000 5.935125 2.543625 19.501125 # Ta 
8 1 2 0.000000 0.847875 4.239375 7.630875 # Ta 
9 1 2 0.000000 7.630875 4.239375 0.847875 # Ta 
10 1 2 0.000000 19.501125 2.543625 5.935125 # Ta 
11 1 2 0.000000 4.239375 0.847875 7.630875 # Ta 
12 1 2 0.000000 2.543625 5.935125 19.501125 # Ta 
13 1 2 0.000000 0.847875 7.630875 4.239375 # Ta 
14 1 2 0.000000 5.935125 19.501125 2.543625 # Ta 
15 1 2 0.000000 2.543625 5.935125 5.935125 # Ta 
16 1 2 0.000000 17.805376 0.847875 0.847875 # Ta 
17 1 2 0.000000 4.239375 4.239375 17.805376 # Ta 
18 1 2 0.000000 19.501125 2.543625 19.501125 # Ta 
19 1 2 0.000000 7.630875 17.805376 7.630875 # Ta 
20 1 2 0.000000 7.630875 7.630875 17.805376 # Ta 
21 1 2 0.000000 19.501125 19.501125 2.543625 # Ta 
22 1 2 0.000000 4.239375 17.805376 4.239375 # Ta 
23 1 2 0.000000 5.935125 2.543625 5.935125 # Ta 
24 1 2 0.000000 0.847875 17.805376 0.847875 # Ta 
25 1 2 0.000000 17.805376 4.239375 4.239375 # Ta 
26 1 2 0.000000 17.805376 7.630875 7.630875 # Ta 
27 1 2 0.000000 2.543625 19.501125 19.501125 # Ta 
28 1 2 0.000000 5.935125 5.935125 2.543625 # Ta 
29 1 2 0.000000 0.847875 0.847875 17.805376 # Ta 
30 1 2 0.000000 2.543625 2.543625 9.326625 # Ta 
31 1 2 0.000000 17.805376 17.805376 11.022376 # Ta 
32 1 2 0.000000 2.543625 19.501125 12.718126 # Ta 
33 1 2 0.000000 4.239375 7.630875 14.413876 # Ta 
34 1 2 0.000000 19.501125 5.935125 16.109627 # Ta 
35 1 2 0.000000 7.630875 0.847875 11.022376 # Ta 
36 1 2 0.000000 5.935125 2.543625 12.718126 # Ta 
37 1 2 0.000000 0.847875 4.239375 14.413876 # Ta 
38 1 2 0.000000 9.326625 2.543625 2.543625 # Ta 
39 1 2 0.000000 11.022376 17.805376 17.805376 # Ta 
40 1 2 0.000000 12.718126 2.543625 19.501125 # Ta 
41 1 2 0.000000 14.413876 4.239375 7.630875 # Ta 
42 1 2 0.000000 16.109627 19.501125 5.935125 # Ta 
43 1 2 0.000000 11.022376 7.630875 0.847875 # Ta 
44 1 2 0.000000 12.718126 5.935125 2.543625 # Ta 
45 1 2 0.000000 14.413876 0.847875 4.239375 # Ta 
46 1 2 0.000000 2.543625 9.326625 2.543625 # Ta 
47 1 2 0.000000 17.805376 11.022376 17.805376 # Ta 
48 1 2 0.000000 19.501125 12.718126 2.543625 # Ta 
49 1 2 0.000000 7.630875 14.413876 4.239375 # Ta 
50 1 2 0.000000 5.935125 16.109627 19.501125 # Ta 
51 1 2 0.000000 0.847875 11.022376 7.630875 # Ta 
52 1 2 0.000000 2.543625 12.718126 5.935125 # Ta 
53 1 2 0.000000 4.239375 14.413876 0.847875 # Ta 
54 1 2 0.000000 7.630875 4.239375 14.413876 # Ta 
55 1 2 0.000000 19.501125 2.543625 12.718126 # Ta 
56 1 2 0.000000 4.239375 0.847875 14.413876 # Ta 
57 1 2 0.000000 2.543625 5.935125 12.718126 # Ta 
58 1 2 0.000000 0.847875 7.630875 11.022376 # Ta 
59 1 2 0.000000 5.935125 19.501125 16.109627 # Ta 
60 1 2 0.000000 7.630875 11.022376 0.847875 # Ta 
61 1 2 0.000000 19.501125 16.109627 5.935125 # Ta 
62 1 2 0.000000 0.847875 14.413876 4.239375 # Ta 
63 1 2 0.000000 5.935125 12.718126 2.543625 # Ta 
64 1 2 0.000000 4.239375 14.413876 7.630875 # Ta 
65 1 2 0.000000 2.543625 12.718126 19.501125 # Ta 
66 1 2 0.000000 14.413876 4.239375 0.847875 # Ta 
67 1 2 0.000000 12.718126 2.543625 5.935125 # Ta 
68 1 2 0.000000 11.022376 0.847875 7.630875 # Ta 
69 1 2 0.000000 16.109627 5.935125 19.501125 # Ta 
70 1 2 0.000000 14.413876 7.630875 4.239375 # Ta 
71 1 2 0.000000 12.718126 19.501125 2.543625 # Ta 
72 1 2 0.000000 17.805376 0.847875 14.413876 # Ta 
73 1 2 0.000000 4.239375 4.239375 11.022376 # Ta 
74 1 2 0.000000 7.630875 17.805376 14.413876 # Ta 
75 1 2 0.000000 9.326625 5.935125 5.935125 # Ta 
76 1 2 0.000000 11.022376 0.847875 0.847875 # Ta 
77 1 2 0.000000 16.109627 2.543625 2.543625 # Ta 
78 1 2 0.000000 11.022376 4.239375 17.805376 # Ta 
79 1 2 0.000000 14.413876 17.805376 7.630875 # Ta 
80 1 2 0.000000 17.805376 14.413876 0.847875 # Ta 
81 1 2 0.000000 19.501125 9.326625 19.501125 # Ta 
82 1 2 0.000000 7.630875 11.022376 7.630875 # Ta 
83 1 2 0.000000 2.543625 16.109627 2.543625 # Ta 
84 1 2 0.000000 4.239375 11.022376 17.805376 # Ta 
85 1 2 0.000000 7.630875 7.630875 11.022376 # Ta 
86 1 2 0.000000 19.501125 19.501125 9.326625 # Ta 
87 1 2 0.000000 4.239375 17.805376 11.022376 # Ta 
88 1 2 0.000000 2.543625 2.543625 16.109627 # Ta 
89 1 2 0.000000 7.630875 14.413876 17.805376 # Ta 
90 1 2 0.000000 4.239375 11.022376 4.239375 # Ta 
91 1 2 0.000000 14.413876 7.630875 17.805376 # Ta 
92 1 2 0.000000 11.022376 17.805376 4.239375 # Ta 
93 1 2 0.000000 0.847875 17.805376 14.413876 # Ta 
94 1 2 0.000000 17.805376 4.239375 11.022376 # Ta 
95 1 2 0.000000 14.413876 17.805376 0.847875 # Ta 
96 1 2 0.000000 11.022376 4.239375 4.239375 # Ta 
97 1 2 0.000000 5.935125 9.326625 5.935125 # Ta 
98 1 2 0.000000 0.847875 11.022376 0.847875 # Ta 
99 1 2 0.000000 17.805376 11.022376 4.239375 # Ta 
100 1 2 0.000000 17.805376 7.630875 14.413876 # Ta 
101 1 2 0.000000 17.805376 14.413876 7.630875 # Ta 
102 1 2 0.000000 11.022376 7.630875 7.630875 # Ta 
103 1 2 0.000000 9.326625 19.501125 19.501125 # Ta 
104 1 2 0.000000 5.935125 5.935125 9.326625 # Ta 
105 1 2 0.000000 0.847875 0.847875 11.022376 # Ta 
106 1 2 0.000000 14.413876 0.847875 17.805376 # Ta 
107 1 2 0.000000 0.847875 14.413876 17.805376 # Ta 
108 1 2 0.000000 17.805376 17.805376 4.239375 # Ta 
109 1 2 0.000000 4.239375 7.630875 7.630875 # Ta 
110 1 2 0.000000 19.501125 5.935125 9.326625 # Ta 
111 1 2 0.000000 7.630875 0.847875 17.805376 # Ta 
112 1 2 0.000000 0.847875 4.239375 0.847875 # Ta 
113 1 2 0.000000 4.239375 17.805376 17.805376 # Ta 
114 1 2 0.000000 7.630875 4.239375 7.630875 # Ta 
115 1 2 0.000000 9.326625 19.501125 5.935125 # Ta 
116 1 2 0.000000 17.805376 7.630875 0.847875 # Ta 
117 1 2 0.000000 0.847875 0.847875 4.239375 # Ta 
118 1 2 0.000000 17.805376 4.239375 17.805376 # Ta 
119 1 2 0.000000 7.630875 7.630875 4.239375 # Ta 
120 1 2 0.000000 5.935125 9.326625 19.501125 # Ta 
121 1 2 0.000000 0.847875 17.805376 7.630875 # Ta 
122 1 2 0.000000 4.239375 0.847875 0.847875 # Ta 
123 1 2 0.000000 0.847875 7.630875 17.805376 # Ta 
124 1 2 0.000000 5.935125 19.501125 9.326625 # Ta 
125 1 2 0.000000 7.630875 17.805376 0.847875 # Ta 
126 1 2 0.000000 19.501125 9.326625 5.935125 # Ta 
127 1 2 0.000000 17.805376 0.847875 7.630875 # Ta 
128 1 2 0.000000 9.326625 5.935125 19.501125 # Ta 
129 1 2 0.000000 4.239375 4.239375 4.239375 # Ta 
130 1 2 0.000000 16.109627 5.935125 5.935125 # Ta 
131 1 2 0.000000 19.501125 16.109627 19.501125 # Ta 
132 1 2 0.000000 19.501125 19.501125 16.109627 # Ta 
133 1 2 0.000000 5.935125 16.109627 5.935125 # Ta 
134 1 2 0.000000 16.109627 19.501125 19.501125 # Ta 
135 1 2 0.000000 5.935125 5.935125 16.109627 # Ta 
136 1 2 0.000000 2.543625 9.326625 9.326625 # Ta 
137 1 2 0.000000 17.805376 11.022376 11.022376 # Ta 
138 1 2 0.000000 2.543625 12.718126 12.718126 # Ta 
139 1 2 0.000000 4.239375 14.413876 14.413876 # Ta 
140 1 2 0.000000 19.501125 12.718126 16.109627 # Ta 
141 1 2 0.000000 7.630875 14.413876 11.022376 # Ta 
142 1 2 0.000000 5.935125 16.109627 12.718126 # Ta 
143 1 2 0.000000 0.847875 11.022376 14.413876 # Ta 
144 1 2 0.000000 9.326625 2.543625 9.326625 # Ta 
145 1 2 0.000000 11.022376 17.805376 11.022376 # Ta 
146 1 2 0.000000 12.718126 2.543625 12.718126 # Ta 
147 1 2 0.000000 14.413876 4.239375 14.413876 # Ta 
148 1 2 0.000000 16.109627 19.501125 12.718126 # Ta 
149 1 2 0.000000 11.022376 7.630875 14.413876 # Ta 
150 1 2 0.000000 12.718126 5.935125 16.109627 # Ta 
151 1 2 0.000000 14.413876 0.847875 11.022376 # Ta 
152 1 2 0.000000 9.326625 9.326625 2.543625 # Ta 
153 1 2 0.000000 11.022376 11.022376 17.805376 # Ta 
154 1 2 0.000000 12.718126 12.718126 2.543625 # Ta 
155 1 2 0.000000 14.413876 14.413876 4.239375 # Ta 
156 1 2 0.000000 12.718126 16.109627 19.501125 # Ta 
157 1 2 0.000000 14.413876 11.022376 7.630875 # Ta 
158 1 2 0.000000 16.109627 12.718126 5.935125 # Ta 
159 1 2 0.000000 11.022376 14.413876 0.847875 # Ta 
160 1 2 0.000000 11.022376 0.847875 14.413876 # Ta 
161 1 2 0.000000 16.109627 5.935125 12.718126 # Ta 
162 1 2 0.000000 14.413876 7.630875 11.022376 # Ta 
163 1 2 0.000000 12.718126 19.501125 16.109627 # Ta 
164 1 2 0.000000 7.630875 11.022376 14.413876 # Ta 
165 1 2 0.000000 19.501125 16.109627 12.718126 # Ta 
166 1 2 0.000000 0.847875 14.413876 11.022376 # Ta 
167 1 2 0.000000 5.935125 12.718126 16.109627 # Ta 
168 1 2 0.000000 14.413876 11.022376 0.847875 # Ta 
169 1 2 0.000000 12.718126 16.109627 5.935125 # Ta 
170 1 2 0.000000 11.022376 14.413876 7.630875 # Ta 
171 1 2 0.000000 16.109627 12.718126 19.501125 # Ta 
172 1 2 0.000000 17.805376 14.413876 14.413876 # Ta 
173 1 2 0.000000 2.543625 16.109627 9.326625 # Ta 
174 1 2 0.000000 4.239375 11.022376 11.022376 # Ta 
175 1 2 0.000000 19.501125 9.326625 12.718126 # Ta 
176 1 2 0.000000 9.326625 5.935125 12.718126 # Ta 
177 1 2 0.000000 16.109627 2.543625 9.326625 # Ta 
178 1 2 0.000000 11.022376 4.239375 11.022376 # Ta 
179 1 2 0.000000 14.413876 17.805376 14.413876 # Ta 
180 1 2 0.000000 9.326625 12.718126 5.935125 # Ta 
181 1 2 0.000000 12.718126 9.326625 19.501125 # Ta 
182 1 2 0.000000 16.109627 16.109627 2.543625 # Ta 
183 1 2 0.000000 12.718126 19.501125 9.326625 # Ta 
184 1 2 0.000000 16.109627 2.543625 16.109627 # Ta 
185 1 2 0.000000 19.501125 12.718126 9.326625 # Ta 
186 1 2 0.000000 2.543625 9.326625 16.109627 # Ta 
187 1 2 0.000000 14.413876 14.413876 17.805376 # Ta 
188 1 2 0.000000 11.022376 11.022376 4.239375 # Ta 
189 1 2 0.000000 16.109627 9.326625 2.543625 # Ta 
190 1 2 0.000000 5.935125 9.326625 12.718126 # Ta 
191 1 2 0.000000 2.543625 16.109627 16.109627 # Ta 
192 1 2 0.000000 9.326625 2.543625 16.109627 # Ta 
193 1 2 0.000000 12.718126 9.326625 5.935125 # Ta 
194 1 2 0.000000 9.326625 16.109627 2.543625 # Ta 
195 1 2 0.000000 9.326625 19.501125 12.718126 # Ta 
196 1 2 0.000000 9.326625 12.718126 19.501125 # Ta 
197 1 2 0.000000 5.935125 12.718126 9.326625 # Ta 
198 1 2 0.000000 12.718126 5.935125 9.326625 # Ta 
199 1 2 0.000000 9.326625 9.326625 9.326625 # Ta 
200 1 2 0.000000 11.022376 11.022376 11.022376 # Ta 
201 1 2 0.000000 16.109627 12.718126 12.718126 # Ta 
202 1 2 0.000000 11.022376 14.413876 14.413876 # Ta 
203 1 2 0.000000 12.718126 12.718126 16.109627 # Ta 
204 1 2 0.000000 14.413876 14.413876 11.022376 # Ta 
205 1 2 0.000000 12.718126 16.109627 12.718126 # Ta 
206 1 2 0.000000 14.413876 11.022376 14.413876 # Ta 
207 1 2 0.000000 9.326625 12.718126 12.718126 # Ta 
208 1 2 0.000000 16.109627 16.109627 9.326625 # Ta 
209 1 2 0.000000 12.718126 9.326625 12.718126 # Ta 
210 1 2 0.000000 12.718126 12.718126 9.326625 # Ta 
211 1 2 0.000000 16.109627 9.326625 16.109627 # Ta 
212 1 2 0.000000 9.326625 16.109627 16.109627 # Ta 
213 1 2 0.000000 9.326625 9.326625 16.109627 # Ta 
214 1 2 0.000000 16.109627 9.326625 9.326625 # Ta 
215 1 2 0.000000 9.326625 16.109627 9.326625 # Ta 
216 1 2 0.000000 16.109627 16.109627 16.109627 # Ta 
217 1 1 0.000000 0.000000 0.000000 0.000000 # Co 
218 1 1 0.000000 0.000000 0.000000 20.349001 # Co 
219 1 1 0.000000 0.000000 20.349001 0.000000 # Co 
220 1 1 0.000000 0.000000 20.349001 20.349001 # Co 
221 1 1 0.000000 20.349001 0.000000 0.000000 # Co 
222 1 1 0.000000 20.349001 0.000000 20.349001 # Co 
223 1 1 0.000000 20.349001 20.349001 0.000000 # Co 
224 1 1 0.000000 20.349001 20.349001 20.349001 # Co 
225 1 1 0.000000 5.087250 1.695750 3.391500 # Co 
226 1 1 0.000000 1.695750 5.087250 3.391500 # Co 
227 1 1 0.000000 1.695750 3.391500 5.087250 # Co 
228 1 1 0.000000 5.087250 3.391500 1.695750 # Co 
229 1 1 0.000000 3.391500 5.087250 1.695750 # Co 
230 1 1 0.000000 3.391500 1.695750 5.087250 # Co 
231 1 1 0.000000 0.000000 3.391500 3.391500 # Co 
232 1 1 0.000000 20.349001 3.391500 3.391500 # Co 
233 1 1 0.000000 5.087250 5.087250 0.000000 # Co 
234 1 1 0.000000 5.087250 5.087250 20.349001 # Co 
235 1 1 0.000000 1.695750 1.695750 0.000000 # Co 
236 1 1 0.000000 1.695750 1.695750 20.349001 # Co 
237 1 1 0.000000 1.695750 0.000000 1.695750 # Co 
238 1 1 0.000000 1.695750 20.349001 1.695750 # Co 
239 1 1 0.000000 5.087250 0.000000 5.087250 # Co 
240 1 1 0.000000 5.087250 20.349001 5.087250 # Co 
241 1 1 0.000000 3.391500 0.000000 3.391500 # Co 
242 1 1 0.000000 3.391500 20.349001 3.391500 # Co 
243 1 1 0.000000 0.000000 5.087250 5.087250 # Co 
244 1 1 0.000000 20.349001 5.087250 5.087250 # Co 
245 1 1 0.000000 0.000000 1.695750 1.695750 # Co 
246 1 1 0.000000 20.349001 1.695750 1.695750 # Co 
247 1 1 0.000000 3.391500 3.391500 0.000000 # Co 
248 1 1 0.000000 3.391500 3.391500 20.349001 # Co 
249 1 1 0.000000 0.000000 0.000000 6.783000 # Co 
250 1 1 0.000000 0.000000 20.349001 6.783000 # Co 
251 1 1 0.000000 20.349001 0.000000 6.783000 # Co 
252 1 1 0.000000 20.349001 20.349001 6.783000 # Co 
253 1 1 0.000000 0.000000 0.000000 13.566001 # Co 
254 1 1 0.000000 0.000000 20.349001 13.566001 # Co 
255 1 1 0.000000 20.349001 0.000000 13.566001 # Co 
256 1 1 0.000000 20.349001 20.349001 13.566001 # Co 
257 1 1 0.000000 5.087250 1.695750 10.174500 # Co 
258 1 1 0.000000 1.695750 5.087250 16.957500 # Co 
259 1 1 0.000000 1.695750 3.391500 18.653252 # Co 
260 1 1 0.000000 5.087250 3.391500 8.478750 # Co 
261 1 1 0.000000 3.391500 5.087250 15.261751 # Co 
262 1 1 0.000000 3.391500 1.695750 11.870251 # Co 
263 1 1 0.000000 6.783000 0.000000 0.000000 # Co 
264 1 1 0.000000 6.783000 0.000000 20.349001 # Co 
265 1 1 0.000000 6.783000 20.349001 0.000000 # Co 
266 1 1 0.000000 6.783000 20.349001 20.349001 # Co 
267 1 1 0.000000 13.566001 0.000000 0.000000 # Co 
268 1 1 0.000000 13.566001 0.000000 20.349001 # Co 
269 1 1 0.000000 13.566001 20.349001 0.000000 # Co 
270 1 1 0.000000 13.566001 20.349001 20.349001 # Co 
271 1 1 0.000000 10.174500 5.087250 1.695750 # Co 
272 1 1 0.000000 16.957500 1.695750 5.087250 # Co 
273 1 1 0.000000 18.653252 1.695750 3.391500 # Co 
274 1 1 0.000000 8.478750 5.087250 3.391500 # Co 
275 1 1 0.000000 15.261751 3.391500 5.087250 # Co 
276 1 1 0.000000 11.870251 3.391500 1.695750 # Co 
277 1 1 0.000000 0.000000 6.783000 0.000000 # Co 
278 1 1 0.000000 0.000000 6.783000 20.349001 # Co 
279 1 1 0.000000 20.349001 6.783000 0.000000 # Co 
280 1 1 0.000000 20.349001 6.783000 20.349001 # Co 
281 1 1 0.000000 0.000000 13.566001 0.000000 # Co 
282 1 1 0.000000 0.000000 13.566001 20.349001 # Co 
283 1 1 0.000000 20.349001 13.566001 0.000000 # Co 
284 1 1 0.000000 20.349001 13.566001 20.349001 # Co 
285 1 1 0.000000 1.695750 10.174500 5.087250 # Co 
286 1 1 0.000000 5.087250 16.957500 1.695750 # Co 
287 1 1 0.000000 3.391500 18.653252 1.695750 # Co 
288 1 1 0.000000 3.391500 8.478750 5.087250 # Co 
289 1 1 0.000000 5.087250 15.261751 3.391500 # Co 
290 1 1 0.000000 1.695750 11.870251 3.391500 # Co 
291 1 1 0.000000 5.087250 1.695750 16.957500 # Co 
292 1 1 0.000000 1.695750 5.087250 10.174500 # Co 
293 1 1 0.000000 1.695750 3.391500 11.870251 # Co 
294 1 1 0.000000 5.087250 3.391500 15.261751 # Co 
295 1 1 0.000000 3.391500 5.087250 8.478750 # Co 
296 1 1 0.000000 3.391500 1.695750 18.653252 # Co 
297 1 1 0.000000 5.087250 8.478750 3.391500 # Co 
298 1 1 0.000000 1.695750 18.653252 3.391500 # Co 
299 1 1 0.000000 3.391500 11.870251 1.695750 # Co 
300 1 1 0.000000 3.391500 15.261751 5.087250 # Co 
301 1 1 0.000000 1.695750 16.957500 5.087250 # Co 
302 1 1 0.000000 5.087250 10.174500 1.695750 # Co 
303 1 1 0.000000 11.870251 1.695750 3.391500 # Co 
304 1 1 0.000000 15.261751 5.087250 3.391500 # Co 
305 1 1 0.000000 8.478750 3.391500 5.087250 # Co 
306 1 1 0.000000 18.653252 3.391500 1.695750 # Co 
307 1 1 0.000000 16.957500 5.087250 1.695750 # Co 
308 1 1 0.000000 10.174500 1.695750 5.087250 # Co 
309 1 1 0.000000 0.000000 3.391500 10.174500 # Co 
310 1 1 0.000000 20.349001 3.391500 10.174500 # Co 
311 1 1 0.000000 0.000000 3.391500 16.957500 # Co 
312 1 1 0.000000 20.349001 3.391500 16.957500 # Co 
313 1 1 0.000000 5.087250 5.087250 6.783000 # Co 
314 1 1 0.000000 1.695750 1.695750 13.566001 # Co 
315 1 1 0.000000 1.695750 0.000000 15.261751 # Co 
316 1 1 0.000000 1.695750 20.349001 15.261751 # Co 
317 1 1 0.000000 5.087250 0.000000 11.870251 # Co 
318 1 1 0.000000 5.087250 20.349001 11.870251 # Co 
319 1 1 0.000000 6.783000 3.391500 3.391500 # Co 
320 1 1 0.000000 13.566001 3.391500 3.391500 # Co 
321 1 1 0.000000 18.653252 5.087250 0.000000 # Co 
322 1 1 0.000000 18.653252 5.087250 20.349001 # Co 
323 1 1 0.000000 8.478750 1.695750 0.000000 # Co 
324 1 1 0.000000 8.478750 1.695750 20.349001 # Co 
325 1 1 0.000000 15.261751 0.000000 1.695750 # Co 
326 1 1 0.000000 15.261751 20.349001 1.695750 # Co 
327 1 1 0.000000 11.870251 0.000000 5.087250 # Co 
328 1 1 0.000000 11.870251 20.349001 5.087250 # Co 
329 1 1 0.000000 0.000000 10.174500 3.391500 # Co 
330 1 1 0.000000 20.349001 10.174500 3.391500 # Co 
331 1 1 0.000000 0.000000 16.957500 3.391500 # Co 
332 1 1 0.000000 20.349001 16.957500 3.391500 # Co 
333 1 1 0.000000 1.695750 6.783000 1.695750 # Co 
334 1 1 0.000000 5.087250 13.566001 5.087250 # Co 
335 1 1 0.000000 5.087250 18.653252 0.000000 # Co 
336 1 1 0.000000 5.087250 18.653252 20.349001 # Co 
337 1 1 0.000000 1.695750 8.478750 0.000000 # Co 
338 1 1 0.000000 1.695750 8.478750 20.349001 # Co 
339 1 1 0.000000 5.087250 5.087250 13.566001 # Co 
340 1 1 0.000000 1.695750 1.695750 6.783000 # Co 
341 1 1 0.000000 1.695750 0.000000 8.478750 # Co 
342 1 1 0.000000 1.695750 20.349001 8.478750 # Co 
343 1 1 0.000000 5.087250 0.000000 18.653252 # Co 
344 1 1 0.000000 5.087250 20.349001 18.653252 # Co 
345 1 1 0.000000 5.087250 11.870251 0.000000 # Co 
346 1 1 0.000000 5.087250 11.870251 20.349001 # Co 
347 1 1 0.000000 1.695750 15.261751 0.000000 # Co 
348 1 1 0.000000 1.695750 15.261751 20.349001 # Co 
349 1 1 0.000000 1.695750 13.566001 1.695750 # Co 
350 1 1 0.000000 5.087250 6.783000 5.087250 # Co 
351 1 1 0.000000 11.870251 5.087250 0.000000 # Co 
352 1 1 0.000000 11.870251 5.087250 20.349001 # Co 
353 1 1 0.000000 15.261751 1.695750 0.000000 # Co 
354 1 1 0.000000 15.261751 1.695750 20.349001 # Co 
355 1 1 0.000000 8.478750 0.000000 1.695750 # Co 
356 1 1 0.000000 8.478750 20.349001 1.695750 # Co 
357 1 1 0.000000 18.653252 0.000000 5.087250 # Co 
358 1 1 0.000000 18.653252 20.349001 5.087250 # Co 
359 1 1 0.000000 3.391500 0.000000 10.174500 # Co 
360 1 1 0.000000 3.391500 20.349001 10.174500 # Co 
361 1 1 0.000000 3.391500 0.000000 16.957500 # Co 
362 1 1 0.000000 3.391500 20.349001 16.957500 # Co 
363 1 1 0.000000 0.000000 5.087250 18.653252 # Co 
364 1 1 0.000000 20.349001 5.087250 18.653252 # Co 
365 1 1 0.000000 0.000000 1.695750 8.478750 # Co 
366 1 1 0.000000 20.349001 1.695750 8.478750 # Co 
367 1 1 0.000000 10.174500 0.000000 3.391500 # Co 
368 1 1 0.000000 10.174500 20.349001 3.391500 # Co 
369 1 1 0.000000 16.957500 0.000000 3.391500 # Co 
370 1 1 0.000000 16.957500 20.349001 3.391500 # Co 
371 1 1 0.000000 6.783000 5.087250 5.087250 # Co 
372 1 1 0.000000 13.566001 1.695750 1.695750 # Co 
373 1 1 0.000000 3.391500 6.783000 3.391500 # Co 
374 1 1 0.000000 3.391500 13.566001 3.391500 # Co 
375 1 1 0.000000 0.000000 18.653252 5.087250 # Co 
376 1 1 0.000000 20.349001 18.653252 5.087250 # Co 
377 1 1 0.000000 0.000000 8.478750 1.695750 # Co 
378 1 1 0.000000 20.349001 8.478750 1.695750 # Co 
379 1 1 0.000000 0.000000 5.087250 11.870251 # Co 
380 1 1 0.000000 20.349001 5.087250 11.870251 # Co 
381 1 1 0.000000 0.000000 1.695750 15.261751 # Co 
382 1 1 0.000000 20.349001 1.695750 15.261751 # Co 
383 1 1 0.000000 0.000000 11.870251 5.087250 # Co 
384 1 1 0.000000 20.349001 11.870251 5.087250 # Co 
385 1 1 0.000000 0.000000 15.261751 1.695750 # Co 
386 1 1 0.000000 20.349001 15.261751 1.695750 # Co 
387 1 1 0.000000 13.566001 5.087250 5.087250 # Co 
388 1 1 0.000000 6.783000 1.695750 1.695750 # Co 
389 1 1 0.000000 3.391500 3.391500 6.783000 # Co 
390 1 1 0.000000 3.391500 3.391500 13.566001 # Co 
391 1 1 0.000000 10.174500 3.391500 0.000000 # Co 
392 1 1 0.000000 10.174500 3.391500 20.349001 # Co 
393 1 1 0.000000 16.957500 3.391500 0.000000 # Co 
394 1 1 0.000000 16.957500 3.391500 20.349001 # Co 
395 1 1 0.000000 3.391500 10.174500 0.000000 # Co 
396 1 1 0.000000 3.391500 10.174500 20.349001 # Co 
397 1 1 0.000000 3.391500 16.957500 0.000000 # Co 
398 1 1 0.000000 3.391500 16.957500 20.349001 # Co 
399 1 1 0.000000 0.000000 6.783000 6.783000 # Co 
400 1 1 0.000000 20.349001 6.783000 6.783000 # Co 
401 1 1 0.000000 0.000000 13.566001 13.566001 # Co 
402 1 1 0.000000 20.349001 13.566001 13.566001 # Co 
403 1 1 0.000000 5.087250 15.261751 10.174500 # Co 
404 1 1 0.000000 1.695750 11.870251 16.957500 # Co 
405 1 1 0.000000 1.695750 10.174500 18.653252 # Co 
406 1 1 0.000000 5.087250 16.957500 8.478750 # Co 
407 1 1 0.000000 3.391500 18.653252 15.261751 # Co 
408 1 1 0.000000 3.391500 8.478750 11.870251 # Co 
409 1 1 0.000000 6.783000 0.000000 6.783000 # Co 
410 1 1 0.000000 6.783000 20.349001 6.783000 # Co 
411 1 1 0.000000 13.566001 0.000000 13.566001 # Co 
412 1 1 0.000000 13.566001 20.349001 13.566001 # Co 
413 1 1 0.000000 10.174500 5.087250 15.261751 # Co 
414 1 1 0.000000 16.957500 1.695750 11.870251 # Co 
415 1 1 0.000000 18.653252 1.695750 10.174500 # Co 
416 1 1 0.000000 8.478750 5.087250 16.957500 # Co 
417 1 1 0.000000 15.261751 3.391500 18.653252 # Co 
418 1 1 0.000000 11.870251 3.391500 8.478750 # Co 
419 1 1 0.000000 6.783000 6.783000 0.000000 # Co 
420 1 1 0.000000 6.783000 6.783000 20.349001 # Co 
421 1 1 0.000000 13.566001 13.566001 0.000000 # Co 
422 1 1 0.000000 13.566001 13.566001 20.349001 # Co 
423 1 1 0.000000 15.261751 10.174500 5.087250 # Co 
424 1 1 0.000000 11.870251 16.957500 1.695750 # Co 
425 1 1 0.000000 10.174500 18.653252 1.695750 # Co 
426 1 1 0.000000 16.957500 8.478750 5.087250 # Co 
427 1 1 0.000000 18.653252 15.261751 3.391500 # Co 
428 1 1 0.000000 8.478750 11.870251 3.391500 # Co 
429 1 1 0.000000 11.870251 1.695750 16.957500 # Co 
430 1 1 0.000000 15.261751 5.087250 10.174500 # Co 
431 1 1 0.000000 8.478750 3.391500 11.870251 # Co 
432 1 1 0.000000 18.653252 3.391500 15.261751 # Co 
433 1 1 0.000000 16.957500 5.087250 8.478750 # Co 
434 1 1 0.000000 10.174500 1.695750 18.653252 # Co 
435 1 1 0.000000 5.087250 8.478750 16.957500 # Co 
436 1 1 0.000000 1.695750 18.653252 10.174500 # Co 
437 1 1 0.000000 3.391500 11.870251 8.478750 # Co 
438 1 1 0.000000 3.391500 15.261751 18.653252 # Co 
439 1 1 0.000000 1.695750 16.957500 11.870251 # Co 
440 1 1 0.000000 5.087250 10.174500 15.261751 # Co 
441 1 1 0.000000 11.870251 8.478750 3.391500 # Co 
442 1 1 0.000000 15.261751 18.653252 3.391500 # Co 
443 1 1 0.000000 8.478750 16.957500 5.087250 # Co 
444 1 1 0.000000 18.653252 10.174500 1.695750 # Co 
445 1 1 0.000000 16.957500 11.870251 1.695750 # Co 
446 1 1 0.000000 10.174500 15.261751 5.087250 # Co 
447 1 1 0.000000 0.000000 10.174500 10.174500 # Co 
448 1 1 0.000000 20.349001 10.174500 10.174500 # Co 
449 1 1 0.000000 0.000000 16.957500 16.957500 # Co 
450 1 1 0.000000 20.349001 16.957500 16.957500 # Co 
451 1 1 0.000000 5.087250 18.653252 6.783000 # Co 
452 1 1 0.000000 1.695750 8.478750 13.566001 # Co 
453 1 1 0.000000 1.695750 6.783000 15.261751 # Co 
454 1 1 0.000000 5.087250 13.566001 11.870251 # Co 
455 1 1 0.000000 6.783000 3.391500 10.174500 # Co 
456 1 1 0.000000 13.566001 3.391500 16.957500 # Co 
457 1 1 0.000000 18.653252 5.087250 6.783000 # Co 
458 1 1 0.000000 8.478750 1.695750 13.566001 # Co 
459 1 1 0.000000 15.261751 0.000000 15.261751 # Co 
460 1 1 0.000000 15.261751 20.349001 15.261751 # Co 
461 1 1 0.000000 11.870251 0.000000 11.870251 # Co 
462 1 1 0.000000 11.870251 20.349001 11.870251 # Co 
463 1 1 0.000000 6.783000 10.174500 3.391500 # Co 
464 1 1 0.000000 13.566001 16.957500 3.391500 # Co 
465 1 1 0.000000 15.261751 6.783000 1.695750 # Co 
466 1 1 0.000000 11.870251 13.566001 5.087250 # Co 
467 1 1 0.000000 18.653252 18.653252 0.000000 # Co 
468 1 1 0.000000 18.653252 18.653252 20.349001 # Co 
469 1 1 0.000000 8.478750 8.478750 0.000000 # Co 
470 1 1 0.000000 8.478750 8.478750 20.349001 # Co 
471 1 1 0.000000 11.870251 5.087250 13.566001 # Co 
472 1 1 0.000000 15.261751 1.695750 6.783000 # Co 
473 1 1 0.000000 8.478750 0.000000 8.478750 # Co 
474 1 1 0.000000 8.478750 20.349001 8.478750 # Co 
475 1 1 0.000000 18.653252 0.000000 18.653252 # Co 
476 1 1 0.000000 18.653252 20.349001 18.653252 # Co 
477 1 1 0.000000 5.087250 11.870251 13.566001 # Co 
478 1 1 0.000000 1.695750 15.261751 6.783000 # Co 
479 1 1 0.000000 1.695750 13.566001 8.478750 # Co 
480 1 1 0.000000 5.087250 6.783000 18.653252 # Co 
481 1 1 0.000000 11.870251 11.870251 0.000000 # Co 
482 1 1 0.000000 11.870251 11.870251 20.349001 # Co 
483 1 1 0.000000 15.261751 15.261751 0.000000 # Co 
484 1 1 0.000000 15.261751 15.261751 20.349001 # Co 
485 1 1 0.000000 8.478750 13.566001 1.695750 # Co 
486 1 1 0.000000 18.653252 6.783000 5.087250 # Co 
487 1 1 0.000000 3.391500 6.783000 10.174500 # Co 
488 1 1 0.000000 3.391500 13.566001 16.957500 # Co 
489 1 1 0.000000 0.000000 18.653252 18.653252 # Co 
490 1 1 0.000000 20.349001 18.653252 18.653252 # Co 
491 1 1 0.000000 0.000000 8.478750 8.478750 # Co 
492 1 1 0.000000 20.349001 8.478750 8.478750 # Co 
493 1 1 0.000000 10.174500 0.000000 10.174500 # Co 
494 1 1 0.000000 10.174500 20.349001 10.174500 # Co 
495 1 1 0.000000 16.957500 0.000000 16.957500 # Co 
496 1 1 0.000000 16.957500 20.349001 16.957500 # Co 
497 1 1 0.000000 6.783000 5.087250 18.653252 # Co 
498 1 1 0.000000 13.566001 1.695750 8.478750 # Co 
499 1 1 0.000000 10.174500 6.783000 3.391500 # Co 
500 1 1 0.000000 16.957500 13.566001 3.391500 # Co 
501 1 1 0.000000 6.783000 18.653252 5.087250 # Co 
502 1 1 0.000000 13.566001 8.478750 1.695750 # Co 
503 1 1 0.000000 13.566001 5.087250 11.870251 # Co 
504 1 1 0.000000 6.783000 1.695750 15.261751 # Co 
505 1 1 0.000000 0.000000 11.870251 11.870251 # Co 
506 1 1 0.000000 20.349001 11.870251 11.870251 # Co 
507 1 1 0.000000 0.000000 15.261751 15.261751 # Co 
508 1 1 0.000000 20.349001 15.261751 15.261751 # Co 
509 1 1 0.000000 13.566001 11.870251 5.087250 # Co 
510 1 1 0.000000 6.783000 15.261751 1.695750 # Co 
511 1 1 0.000000 3.391500 10.174500 6.783000 # Co 
512 1 1 0.000000 3.391500 16.957500 13.566001 # Co 
513 1 1 0.000000 10.174500 3.391500 6.783000 # Co 
514 1 1 0.000000 16.957500 3.391500 13.566001 # Co 
515 1 1 0.000000 10.174500 10.174500 0.000000 # Co 
516 1 1 0.000000 10.174500 10.174500 20.349001 # Co 
517 1 1 0.000000 16.957500 16.957500 0.000000 # Co 
518 1 1 0.000000 16.957500 16.957500 20.349001 # Co 
519 1 1 0.000000 0.000000 6.783000 13.566001 # Co 
520 1 1 0.000000 20.349001 6.783000 13.566001 # Co 
521 1 1 0.000000 0.000000 13.566001 6.783000 # Co 
522 1 1 0.000000 20.349001 13.566001 6.783000 # Co 
523 1 1 0.000000 5.087250 15.261751 16.957500 # Co 
524 1 1 0.000000 1.695750 11.870251 10.174500 # Co 
525 1 1 0.000000 1.695750 10.174500 11.870251 # Co 
526 1 1 0.000000 5.087250 16.957500 15.261751 # Co 
527 1 1 0.000000 3.391500 18.653252 8.478750 # Co 
528 1 1 0.000000 3.391500 8.478750 18.653252 # Co 
529 1 1 0.000000 13.566001 0.000000 6.783000 # Co 
530 1 1 0.000000 13.566001 20.349001 6.783000 # Co 
531 1 1 0.000000 6.783000 0.000000 13.566001 # Co 
532 1 1 0.000000 6.783000 20.349001 13.566001 # Co 
533 1 1 0.000000 16.957500 5.087250 15.261751 # Co 
534 1 1 0.000000 10.174500 1.695750 11.870251 # Co 
535 1 1 0.000000 11.870251 1.695750 10.174500 # Co 
536 1 1 0.000000 15.261751 5.087250 16.957500 # Co 
537 1 1 0.000000 8.478750 3.391500 18.653252 # Co 
538 1 1 0.000000 18.653252 3.391500 8.478750 # Co 
539 1 1 0.000000 6.783000 13.566001 0.000000 # Co 
540 1 1 0.000000 6.783000 13.566001 20.349001 # Co 
541 1 1 0.000000 13.566001 6.783000 0.000000 # Co 
542 1 1 0.000000 13.566001 6.783000 20.349001 # Co 
543 1 1 0.000000 15.261751 16.957500 5.087250 # Co 
544 1 1 0.000000 11.870251 10.174500 1.695750 # Co 
545 1 1 0.000000 10.174500 11.870251 1.695750 # Co 
546 1 1 0.000000 16.957500 15.261751 5.087250 # Co 
547 1 1 0.000000 18.653252 8.478750 3.391500 # Co 
548 1 1 0.000000 8.478750 18.653252 3.391500 # Co 
549 1 1 0.000000 0.000000 10.174500 16.957500 # Co 
550 1 1 0.000000 20.349001 10.174500 16.957500 # Co 
551 1 1 0.000000 0.000000 16.957500 10.174500 # Co 
552 1 1 0.000000 20.349001 16.957500 10.174500 # Co 
553 1 1 0.000000 5.087250 18.653252 13.566001 # Co 
554 1 1 0.000000 1.695750 8.478750 6.783000 # Co 
555 1 1 0.000000 1.695750 6.783000 8.478750 # Co 
556 1 1 0.000000 5.087250 13.566001 18.653252 # Co 
557 1 1 0.000000 3.391500 15.261751 11.870251 # Co 
558 1 1 0.000000 3.391500 11.870251 15.261751 # Co 
559 1 1 0.000000 13.566001 3.391500 10.174500 # Co 
560 1 1 0.000000 6.783000 3.391500 16.957500 # Co 
561 1 1 0.000000 16.957500 1.695750 18.653252 # Co 
562 1 1 0.000000 10.174500 5.087250 8.478750 # Co 
563 1 1 0.000000 11.870251 5.087250 6.783000 # Co 
564 1 1 0.000000 15.261751 1.695750 13.566001 # Co 
565 1 1 0.000000 8.478750 0.000000 15.261751 # Co 
566 1 1 0.000000 8.478750 20.349001 15.261751 # Co 
567 1 1 0.000000 18.653252 0.000000 11.870251 # Co 
568 1 1 0.000000 18.653252 20.349001 11.870251 # Co 
569 1 1 0.000000 6.783000 16.957500 3.391500 # Co 
570 1 1 0.000000 13.566001 10.174500 3.391500 # Co 
571 1 1 0.000000 15.261751 13.566001 1.695750 # Co 
572 1 1 0.000000 11.870251 6.783000 5.087250 # Co 
573 1 1 0.000000 10.174500 8.478750 5.087250 # Co 
574 1 1 0.000000 16.957500 18.653252 1.695750 # Co 
575 1 1 0.000000 18.653252 11.870251 0.000000 # Co 
576 1 1 0.000000 18.653252 11.870251 20.349001 # Co 