ITEM: TIMESTEP
0
ITEM: NUMBER OF ATOMS
766
ITEM: BOX BOUNDS pp pp pp
-2.5499999999999998e-02 2.0374500000000001e+01
-2.5499999999999998e-02 2.0374500000000001e+01
-2.5499999999999998e-02 2.0374500000000001e+01
ITEM: ATOMS id type xs ys zs
1 2 0.125937 0.125937 0.125937
217 1 0.00125 0.00125 0.00125
231 1 0.00125 0.1675 0.1675
235 1 0.084375 0.084375 0.00125
237 1 0.084375 0.00125 0.084375
241 1 0.1675 0.00125 0.1675
245 1 0.00125 0.084375 0.084375
247 1 0.1675 0.1675 0.00125
122 2 0.209062 0.0428125 0.0428125
225 1 0.250625 0.084375 0.1675
228 1 0.250625 0.1675 0.084375
263 1 0.33375 0.00125 0.00125
319 1 0.33375 0.1675 0.1675
388 1 0.33375 0.084375 0.084375
38 2 0.458437 0.125937 0.125937
76 2 0.541563 0.0428125 0.0428125
276 1 0.583125 0.1675 0.084375
303 1 0.583125 0.084375 0.1675
323 1 0.416875 0.084375 0.00125
355 1 0.416875 0.00125 0.084375
367 1 0.5 0.00125 0.1675
391 1 0.5 0.1675 0.00125
77 2 0.790938 0.125937 0.125937
267 1 0.66625 0.00125 0.00125
320 1 0.66625 0.1675 0.1675
325 1 0.749375 0.00125 0.084375
353 1 0.749375 0.084375 0.00125
372 1 0.66625 0.084375 0.084375
16 2 0.874063 0.0428125 0.0428125
221 1 0.99875 0.00125 0.00125
232 1 0.99875 0.1675 0.1675
246 1 0.99875 0.084375 0.084375
273 1 0.915625 0.084375 0.1675
306 1 0.915625 0.1675 0.084375
369 1 0.8325 0.00125 0.1675
393 1 0.8325 0.1675 0.00125
112 2 0.0428125 0.209062 0.0428125
226 1 0.084375 0.250625 0.1675
229 1 0.1675 0.250625 0.084375
277 1 0.00125 0.33375 0.00125
333 1 0.084375 0.33375 0.084375
373 1 0.1675 0.33375 0.1675
4 2 0.209062 0.375312 0.0428125
9 2 0.375312 0.209062 0.0428125
28 2 0.292187 0.292187 0.125937
233 1 0.250625 0.250625 0.00125
419 1 0.33375 0.33375 0.00125
43 2 0.541563 0.375312 0.0428125
271 1 0.5 0.250625 0.084375
274 1 0.416875 0.250625 0.1675
351 1 0.583125 0.250625 0.00125
499 1 0.5 0.33375 0.1675
634 1 0.416875 0.33375 0.084375
44 2 0.624688 0.292187 0.125937
66 2 0.707813 0.209062 0.0428125
304 1 0.749375 0.250625 0.1675
465 1 0.749375 0.33375 0.084375
541 1 0.66625 0.33375 0.00125
5 2 0.957187 0.292187 0.125937
116 2 0.874063 0.375312 0.0428125
279 1 0.99875 0.33375 0.00125
307 1 0.8325 0.250625 0.084375
321 1 0.915625 0.250625 0.00125
600 1 0.8325 0.33375 0.1675
46 2 0.125937 0.458437 0.125937
98 2 0.0428125 0.541563 0.0428125
290 1 0.084375 0.583125 0.1675
299 1 0.1675 0.583125 0.084375
329 1 0.00125 0.5 0.1675
337 1 0.084375 0.416875 0.00125
377 1 0.00125 0.416875 0.084375
395 1 0.1675 0.5 0.00125
60 2 0.375312 0.541563 0.0428125
297 1 0.250625 0.416875 0.1675
302 1 0.250625 0.5 0.084375
345 1 0.250625 0.583125 0.00125
463 1 0.33375 0.5 0.1675
635 1 0.33375 0.416875 0.084375
152 2 0.458437 0.458437 0.125937
428 1 0.416875 0.583125 0.1675
441 1 0.583125 0.416875 0.1675
469 1 0.416875 0.416875 0.00125
481 1 0.583125 0.583125 0.00125
515 1 0.5 0.5 0.00125
544 1 0.583125 0.5 0.084375
545 1 0.5 0.583125 0.084375
168 2 0.707813 0.541563 0.0428125
189 2 0.790938 0.458437 0.125937
502 1 0.66625 0.416875 0.084375
570 1 0.66625 0.5 0.1675
605 1 0.749375 0.416875 0.00125
637 1 0.749375 0.583125 0.1675
330 1 0.99875 0.5 0.1675
378 1 0.99875 0.416875 0.084375
444 1 0.915625 0.5 0.084375
445 1 0.8325 0.583125 0.084375
547 1 0.915625 0.416875 0.1675
575 1 0.915625 0.583125 0.00125
631 1 0.8325 0.5 0.00125
83 2 0.125937 0.790938 0.125937
281 1 0.00125 0.66625 0.00125
347 1 0.084375 0.749375 0.00125
349 1 0.084375 0.66625 0.084375
374 1 0.1675 0.66625 0.1675
385 1 0.00125 0.749375 0.084375
53 2 0.209062 0.707813 0.0428125
63 2 0.292187 0.624688 0.125937
289 1 0.250625 0.749375 0.1675
510 1 0.33375 0.749375 0.084375
539 1 0.33375 0.66625 0.00125
159 2 0.541563 0.707813 0.0428125
194 2 0.458437 0.790938 0.125937
485 1 0.416875 0.66625 0.084375
577 1 0.416875 0.749375 0.00125
599 1 0.5 0.66625 0.1675
638 1 0.583125 0.749375 0.1675
154 2 0.624688 0.624688 0.125937
182 2 0.790938 0.790938 0.125937
421 1 0.66625 0.66625 0.00125
483 1 0.749375 0.749375 0.00125
571 1 0.749375 0.66625 0.084375
604 1 0.66625 0.749375 0.084375
48 2 0.957187 0.624688 0.125937
80 2 0.874063 0.707813 0.0428125
283 1 0.99875 0.66625 0.00125
386 1 0.99875 0.749375 0.084375
427 1 0.915625 0.749375 0.1675
500 1 0.8325 0.66625 0.1675
24 2 0.0428125 0.874063 0.0428125
219 1 0.00125 0.99875 0.00125
238 1 0.084375 0.99875 0.084375
242 1 0.1675 0.99875 0.1675
287 1 0.1675 0.915625 0.084375
298 1 0.084375 0.915625 0.1675
331 1 0.00125 0.8325 0.1675
397 1 0.1675 0.8325 0.00125
14 2 0.292187 0.957187 0.125937
125 2 0.375312 0.874063 0.0428125
265 1 0.33375 0.99875 0.00125
286 1 0.250625 0.8325 0.084375
335 1 0.250625 0.915625 0.00125
569 1 0.33375 0.8325 0.1675
356 1 0.416875 0.99875 0.084375
368 1 0.5 0.99875 0.1675
424 1 0.583125 0.8325 0.084375
425 1 0.5 0.915625 0.084375
548 1 0.416875 0.915625 0.1675
607 1 0.583125 0.915625 0.00125
629 1 0.5 0.8325 0.00125
71 2 0.624688 0.957187 0.125937
95 2 0.707813 0.874063 0.0428125
269 1 0.66625 0.99875 0.00125
326 1 0.749375 0.99875 0.084375
442 1 0.749375 0.915625 0.1675
464 1 0.66625 0.8325 0.1675
21 2 0.957187 0.957187 0.125937
223 1 0.99875 0.99875 0.00125
332 1 0.99875 0.8325 0.1675
370 1 0.8325 0.99875 0.1675
467 1 0.915625 0.915625 0.00125
517 1 0.8325 0.8325 0.00125
574 1 0.8325 0.915625 0.084375
601 1 0.915625 0.8325 0.084375
117 2 0.0428125 0.0428125 0.209062
227 1 0.084375 0.1675 0.250625
230 1 0.1675 0.084375 0.250625
249 1 0.00125 0.00125 0.33375
340 1 0.084375 0.084375 0.33375
389 1 0.1675 0.1675 0.33375
6 2 0.375312 0.0428125 0.209062
11 2 0.209062 0.0428125 0.375312
23 2 0.292187 0.125937 0.292187
239 1 0.250625 0.00125 0.250625
409 1 0.33375 0.00125 0.33375
68 2 0.541563 0.0428125 0.375312
305 1 0.416875 0.1675 0.250625
308 1 0.5 0.084375 0.250625
327 1 0.583125 0.00125 0.250625
513 1 0.5 0.1675 0.33375
595 1 0.416875 0.084375 0.33375
45 2 0.707813 0.0428125 0.209062
67 2 0.624688 0.125937 0.292187
275 1 0.749375 0.1675 0.250625
472 1 0.749375 0.084375 0.33375
529 1 0.66625 0.00125 0.33375
10 2 0.957187 0.125937 0.292187
127 2 0.874063 0.0428125 0.375312
251 1 0.99875 0.00125 0.33375
272 1 0.8325 0.084375 0.250625
357 1 0.915625 0.00125 0.250625
619 1 0.8325 0.1675 0.33375
8 2 0.0428125 0.209062 0.375312
13 2 0.0428125 0.375312 0.209062
15 2 0.125937 0.292187 0.292187
243 1 0.00125 0.250625 0.250625
399 1 0.00125 0.33375 0.33375
109 2 0.209062 0.375312 0.375312
114 2 0.375312 0.209062 0.375312
119 2 0.375312 0.375312 0.209062
129 2 0.209062 0.209062 0.209062
313 1 0.250625 0.250625 0.33375
350 1 0.250625 0.33375 0.250625
371 1 0.33375 0.250625 0.250625
639 1 0.33375 0.33375 0.33375
75 2 0.458437 0.292187 0.292187
96 2 0.541563 0.209062 0.209062
102 2 0.541563 0.375312 0.375312
563 1 0.583125 0.250625 0.33375
572 1 0.583125 0.33375 0.250625
41 2 0.707813 0.209062 0.375312
70 2 0.707813 0.375312 0.209062
130 2 0.790938 0.292187 0.292187
387 1 0.66625 0.250625 0.250625
679 1 0.66625 0.33375 0.33375
25 2 0.874063 0.209062 0.209062
26 2 0.874063 0.375312 0.375312
244 1 0.99875 0.250625 0.250625
400 1 0.99875 0.33375 0.33375
457 1 0.915625 0.250625 0.33375
486 1 0.915625 0.33375 0.250625
51 2 0.0428125 0.541563 0.375312
285 1 0.084375 0.5 0.250625
288 1 0.1675 0.416875 0.250625
383 1 0.00125 0.583125 0.250625
511 1 0.1675 0.5 0.33375
554 1 0.084375 0.416875 0.33375
82 2 0.375312 0.541563 0.375312
90 2 0.209062 0.541563 0.209062
97 2 0.292187 0.458437 0.292187
582 1 0.250625 0.583125 0.33375
603 1 0.33375 0.583125 0.250625
188 2 0.541563 0.541563 0.209062
573 1 0.5 0.416875 0.250625
602 1 0.416875 0.5 0.250625
669 1 0.5 0.5 0.33375
716 1 0.416875 0.416875 0.33375
731 1 0.583125 0.583125 0.33375
157 2 0.707813 0.541563 0.375312
193 2 0.624688 0.458437 0.292187
423 1 0.749375 0.5 0.250625
509 1 0.66625 0.583125 0.250625
736 1 0.749375 0.416875 0.33375
99 2 0.874063 0.541563 0.209062
126 2 0.957187 0.458437 0.292187
384 1 0.99875 0.583125 0.250625
426 1 0.8325 0.416875 0.250625
729 1 0.915625 0.583125 0.33375
763 1 0.8325 0.5 0.33375
52 2 0.125937 0.624688 0.292187
62 2 0.0428125 0.707813 0.209062
300 1 0.1675 0.749375 0.250625
478 1 0.084375 0.749375 0.33375
521 1 0.00125 0.66625 0.33375
49 2 0.375312 0.707813 0.209062
64 2 0.209062 0.707813 0.375312
133 2 0.292187 0.790938 0.292187
334 1 0.250625 0.66625 0.250625
687 1 0.33375 0.66625 0.33375
170 2 0.541563 0.707813 0.375312
180 2 0.458437 0.624688 0.292187
446 1 0.5 0.749375 0.250625
466 1 0.583125 0.66625 0.250625
740 1 0.416875 0.749375 0.33375
155 2 0.707813 0.707813 0.209062
158 2 0.790938 0.624688 0.292187
169 2 0.624688 0.790938 0.292187
660 1 0.749375 0.749375 0.33375
672 1 0.66625 0.66625 0.33375
61 2 0.957187 0.790938 0.292187
101 2 0.874063 0.707813 0.375312
522 1 0.99875 0.66625 0.33375
546 1 0.8325 0.749375 0.250625
633 1 0.915625 0.66625 0.250625
3 2 0.125937 0.957187 0.292187
121 2 0.0428125 0.874063 0.375312
250 1 0.00125 0.99875 0.33375
301 1 0.084375 0.8325 0.250625
375 1 0.00125 0.915625 0.250625
610 1 0.1675 0.8325 0.33375
19 2 0.375312 0.874063 0.375312
22 2 0.209062 0.874063 0.209062
240 1 0.250625 0.99875 0.250625
410 1 0.33375 0.99875 0.33375
451 1 0.250625 0.915625 0.33375
501 1 0.33375 0.915625 0.250625
92 2 0.541563 0.874063 0.209062
115 2 0.458437 0.957187 0.292187
328 1 0.583125 0.99875 0.250625
443 1 0.416875 0.8325 0.250625
721 1 0.583125 0.915625 0.33375
765 1 0.5 0.8325 0.33375
42 2 0.790938 0.957187 0.292187
79 2 0.707813 0.874063 0.375312
530 1 0.66625 0.99875 0.33375
543 1 0.749375 0.8325 0.250625
636 1 0.66625 0.915625 0.250625
108 2 0.874063 0.874063 0.209062
252 1 0.99875 0.99875 0.33375
358 1 0.915625 0.99875 0.250625
376 1 0.99875 0.915625 0.250625
655 1 0.915625 0.915625 0.33375
762 1 0.8325 0.8325 0.33375
30 2 0.125937 0.125937 0.458437
105 2 0.0428125 0.0428125 0.541563
262 1 0.1675 0.084375 0.583125
293 1 0.084375 0.1675 0.583125
309 1 0.00125 0.1675 0.5
341 1 0.084375 0.00125 0.416875
359 1 0.1675 0.00125 0.5
365 1 0.00125 0.084375 0.416875
35 2 0.375312 0.0428125 0.541563
257 1 0.250625 0.084375 0.5
260 1 0.250625 0.1675 0.416875
317 1 0.250625 0.00125 0.583125
455 1 0.33375 0.1675 0.5
594 1 0.33375 0.084375 0.416875
144 2 0.458437 0.125937 0.458437
418 1 0.583125 0.1675 0.416875
431 1 0.416875 0.1675 0.583125
461 1 0.583125 0.00125 0.583125
473 1 0.416875 0.00125 0.416875
493 1 0.5 0.00125 0.5
534 1 0.5 0.084375 0.583125
535 1 0.583125 0.084375 0.5
151 2 0.707813 0.0428125 0.541563
177 2 0.790938 0.125937 0.458437
498 1 0.66625 0.084375 0.416875
559 1 0.66625 0.1675 0.5
598 1 0.749375 0.1675 0.583125
627 1 0.749375 0.00125 0.416875
310 1 0.99875 0.1675 0.5
366 1 0.99875 0.084375 0.416875
414 1 0.8325 0.084375 0.583125
415 1 0.915625 0.084375 0.5
538 1 0.915625 0.1675 0.416875
567 1 0.915625 0.00125 0.583125
589 1 0.8325 0.00125 0.5
58 2 0.0428125 0.375312 0.541563
292 1 0.084375 0.250625 0.5
295 1 0.1675 0.250625 0.416875
379 1 0.00125 0.250625 0.583125
487 1 0.1675 0.33375 0.5
555 1 0.084375 0.33375 0.416875
73 2 0.209062 0.209062 0.541563
85 2 0.375312 0.375312 0.541563
104 2 0.292187 0.292187 0.458437
613 1 0.250625 0.33375 0.583125
622 1 0.33375 0.250625 0.583125
178 2 0.541563 0.209062 0.541563
562 1 0.5 0.250625 0.416875
623 1 0.416875 0.250625 0.5
663 1 0.5 0.33375 0.5
728 1 0.583125 0.33375 0.583125
737 1 0.416875 0.33375 0.416875
162 2 0.707813 0.375312 0.541563
198 2 0.624688 0.292187 0.458437
430 1 0.749375 0.250625 0.5
503 1 0.66625 0.250625 0.583125
717 1 0.749375 0.33375 0.416875
94 2 0.874063 0.209062 0.541563
110 2 0.957187 0.292187 0.458437
380 1 0.99875 0.250625 0.583125
433 1 0.8325 0.250625 0.416875
734 1 0.915625 0.33375 0.583125
747 1 0.8325 0.33375 0.5
136 2 0.125937 0.458437 0.458437
408 1 0.1675 0.416875 0.583125
437 1 0.1675 0.583125 0.416875
447 1 0.00125 0.5 0.5
491 1 0.00125 0.416875 0.416875
505 1 0.00125 0.583125 0.583125
524 1 0.084375 0.583125 0.5
525 1 0.084375 0.5 0.583125
174 2 0.209062 0.541563 0.541563
583 1 0.250625 0.5 0.416875
612 1 0.250625 0.416875 0.5
653 1 0.33375 0.5 0.5
750 1 0.33375 0.416875 0.416875
759 1 0.33375 0.583125 0.583125
199 2 0.458437 0.458437 0.458437
200 2 0.541563 0.541563 0.541563
674 1 0.416875 0.583125 0.5
682 1 0.5 0.416875 0.583125
690 1 0.583125 0.5 0.416875
695 1 0.583125 0.416875 0.5
705 1 0.416875 0.5 0.583125
711 1 0.5 0.583125 0.416875
214 2 0.790938 0.458437 0.458437
666 1 0.66625 0.416875 0.416875
667 1 0.66625 0.583125 0.583125
675 1 0.749375 0.5 0.583125
702 1 0.749375 0.583125 0.5
719 1 0.66625 0.5 0.5
137 2 0.874063 0.541563 0.541563
448 1 0.99875 0.5 0.5
492 1 0.99875 0.416875 0.416875
506 1 0.99875 0.583125 0.583125
646 1 0.8325 0.416875 0.583125
651 1 0.8325 0.583125 0.416875
693 1 0.915625 0.416875 0.5
698 1 0.915625 0.5 0.416875
166 2 0.0428125 0.707813 0.541563
173 2 0.125937 0.790938 0.458437
479 1 0.084375 0.66625 0.416875
557 1 0.1675 0.749375 0.583125
580 1 0.1675 0.66625 0.5
615 1 0.00125 0.749375 0.416875
141 2 0.375312 0.707813 0.541563
197 2 0.292187 0.624688 0.458437
403 1 0.250625 0.749375 0.5
454 1 0.250625 0.66625 0.583125
756 1 0.33375 0.749375 0.416875
215 2 0.458437 0.790938 0.458437
658 1 0.583125 0.66625 0.583125
661 1 0.416875 0.66625 0.416875
683 1 0.583125 0.749375 0.5
700 1 0.5 0.749375 0.583125
751 1 0.5 0.66625 0.5
204 2 0.707813 0.707813 0.541563
208 2 0.790938 0.790938 0.458437
210 2 0.624688 0.624688 0.458437
741 1 0.749375 0.66625 0.416875
754 1 0.66625 0.749375 0.416875
185 2 0.957187 0.624688 0.458437
616 1 0.99875 0.749375 0.416875
641 1 0.915625 0.749375 0.5
692 1 0.8325 0.749375 0.583125
724 1 0.915625 0.66625 0.583125
744 1 0.8325 0.66625 0.5
342 1 0.084375 0.99875 0.416875
360 1 0.1675 0.99875 0.5
436 1 0.084375 0.915625 0.5
439 1 0.084375 0.8325 0.583125
527 1 0.1675 0.915625 0.416875
551 1 0.00125 0.8325 0.5
585 1 0.00125 0.915625 0.583125
87 2 0.209062 0.874063 0.541563
124 2 0.292187 0.957187 0.458437
318 1 0.250625 0.99875 0.583125
406 1 0.250625 0.8325 0.416875
725 1 0.33375 0.8325 0.5
745 1 0.33375 0.915625 0.583125
145 2 0.541563 0.874063 0.541563
462 1 0.583125 0.99875 0.583125
474 1 0.416875 0.99875 0.416875
494 1 0.5 0.99875 0.5
644 1 0.583125 0.8325 0.416875
649 1 0.416875 0.8325 0.583125
677 1 0.5 0.915625 0.416875
708 1 0.416875 0.915625 0.5
183 2 0.624688 0.957187 0.458437
628 1 0.749375 0.99875 0.416875
648 1 0.749375 0.915625 0.5
709 1 0.749375 0.8325 0.583125
714 1 0.66625 0.8325 0.5
757 1 0.66625 0.915625 0.583125
31 2 0.874063 0.874063 0.541563
86 2 0.957187 0.957187 0.458437
552 1 0.99875 0.8325 0.5
568 1 0.915625 0.99875 0.583125
586 1 0.99875 0.915625 0.583125
590 1 0.8325 0.99875 0.5
686 1 0.915625 0.8325 0.416875
703 1 0.8325 0.915625 0.416875
88 2 0.125937 0.125937 0.790938
253 1 0.00125 0.00125 0.66625
314 1 0.084375 0.084375 0.66625
315 1 0.084375 0.00125 0.749375
381 1 0.00125 0.084375 0.749375
390 1 0.1675 0.1675 0.66625
36 2 0.292187 0.125937 0.624688
56 2 0.209062 0.0428125 0.707813
294 1 0.250625 0.1675 0.749375
504 1 0.33375 0.084375 0.749375
531 1 0.33375 0.00125 0.66625
160 2 0.541563 0.0428125 0.707813
192 2 0.458437 0.125937 0.790938
458 1 0.416875 0.084375 0.66625
565 1 0.416875 0.00125 0.749375
597 1 0.583125 0.1675 0.749375
620 1 0.5 0.1675 0.66625
146 2 0.624688 0.125937 0.624688
184 2 0.790938 0.125937 0.790938
411 1 0.66625 0.00125 0.66625
459 1 0.749375 0.00125 0.749375
564 1 0.749375 0.084375 0.66625
621 1 0.66625 0.084375 0.749375
55 2 0.957187 0.125937 0.624688
72 2 0.874063 0.0428125 0.707813
255 1 0.99875 0.00125 0.66625
382 1 0.99875 0.084375 0.749375
432 1 0.915625 0.1675 0.749375
514 1 0.8325 0.1675 0.66625
37 2 0.0428125 0.209062 0.707813
57 2 0.125937 0.292187 0.624688
261 1 0.1675 0.250625 0.749375
453 1 0.084375 0.33375 0.749375
519 1 0.00125 0.33375 0.66625
33 2 0.209062 0.375312 0.707813
54 2 0.375312 0.209062 0.707813
135 2 0.292187 0.292187 0.790938
339 1 0.250625 0.250625 0.66625
671 1 0.33375 0.33375 0.66625
149 2 0.541563 0.375312 0.707813
176 2 0.458437 0.292187 0.624688
413 1 0.5 0.250625 0.749375
471 1 0.583125 0.250625 0.66625
723 1 0.416875 0.33375 0.749375
147 2 0.707813 0.209062 0.707813
150 2 0.624688 0.292187 0.790938
161 2 0.790938 0.292187 0.624688
657 1 0.749375 0.33375 0.749375
688 1 0.66625 0.33375 0.66625
34 2 0.957187 0.292187 0.790938
100 2 0.874063 0.375312 0.707813
520 1 0.99875 0.33375 0.66625
533 1 0.8325 0.250625 0.749375
596 1 0.915625 0.250625 0.66625
143 2 0.0428125 0.541563 0.707813
186 2 0.125937 0.458437 0.790938
452 1 0.084375 0.416875 0.66625
558 1 0.1675 0.583125 0.749375
587 1 0.00125 0.416875 0.749375
609 1 0.1675 0.5 0.66625
164 2 0.375312 0.541563 0.707813
190 2 0.292187 0.458437 0.624688
440 1 0.250625 0.5 0.749375
477 1 0.250625 0.583125 0.66625
758 1 0.33375 0.416875 0.749375
213 2 0.458437 0.458437 0.790938
656 1 0.416875 0.416875 0.66625
659 1 0.583125 0.583125 0.66625
691 1 0.5 0.583125 0.749375
710 1 0.583125 0.5 0.749375
761 1 0.5 0.5 0.66625
206 2 0.707813 0.541563 0.707813
209 2 0.624688 0.458437 0.624688
211 2 0.790938 0.458437 0.790938
722 1 0.749375 0.416875 0.66625
746 1 0.66625 0.416875 0.749375
175 2 0.957187 0.458437 0.624688
588 1 0.99875 0.416875 0.749375
650 1 0.915625 0.5 0.749375
699 1 0.8325 0.583125 0.749375
739 1 0.915625 0.583125 0.66625
766 1 0.8325 0.5 0.66625
138 2 0.125937 0.624688 0.624688
191 2 0.125937 0.790938 0.790938
401 1 0.00125 0.66625 0.66625
507 1 0.00125 0.749375 0.749375
581 1 0.084375 0.749375 0.66625
614 1 0.084375 0.66625 0.749375
139 2 0.209062 0.707813 0.707813
142 2 0.292187 0.790938 0.624688
167 2 0.292187 0.624688 0.790938
668 1 0.33375 0.749375 0.749375
680 1 0.33375 0.66625 0.66625
202 2 0.541563 0.707813 0.707813
207 2 0.458437 0.624688 0.624688
212 2 0.458437 0.790938 0.790938
730 1 0.416875 0.749375 0.66625
733 1 0.416875 0.66625 0.749375
201 2 0.790938 0.624688 0.624688
203 2 0.624688 0.624688 0.790938
205 2 0.624688 0.790938 0.624688
216 2 0.790938 0.790938 0.790938
640 1 0.66625 0.66625 0.66625
727 1 0.749375 0.66625 0.749375
732 1 0.749375 0.749375 0.66625
760 1 0.66625 0.749375 0.749375
140 2 0.957187 0.624688 0.790938
165 2 0.957187 0.790938 0.624688
172 2 0.874063 0.707813 0.707813
402 1 0.99875 0.66625 0.66625
508 1 0.99875 0.749375 0.749375
32 2 0.125937 0.957187 0.624688
93 2 0.0428125 0.874063 0.707813
254 1 0.00125 0.99875 0.66625
316 1 0.084375 0.99875 0.749375
407 1 0.1675 0.915625 0.749375
512 1 0.1675 0.8325 0.66625
59 2 0.292187 0.957187 0.790938
74 2 0.375312 0.874063 0.707813
526 1 0.250625 0.8325 0.749375
532 1 0.33375 0.99875 0.66625
553 1 0.250625 0.915625 0.66625
195 2 0.458437 0.957187 0.624688
566 1 0.416875 0.99875 0.749375
645 1 0.5 0.915625 0.749375
676 1 0.583125 0.8325 0.749375
735 1 0.583125 0.915625 0.66625
764 1 0.5 0.8325 0.66625
148 2 0.790938 0.957187 0.624688
163 2 0.624688 0.957187 0.790938
179 2 0.707813 0.874063 0.707813
412 1 0.66625 0.99875 0.66625
460 1 0.749375 0.99875 0.749375
132 2 0.957187 0.957187 0.790938
256 1 0.99875 0.99875 0.66625
670 1 0.8325 0.8325 0.66625
681 1 0.8325 0.915625 0.749375
706 1 0.915625 0.8325 0.749375
715 1 0.915625 0.915625 0.66625
29 2 0.0428125 0.0428125 0.874063
218 1 0.00125 0.00125 0.99875
236 1 0.084375 0.084375 0.99875
248 1 0.1675 0.1675 0.99875
259 1 0.084375 0.1675 0.915625
296 1 0.1675 0.084375 0.915625
311 1 0.00125 0.1675 0.8325
361 1 0.1675 0.00125 0.8325
7 2 0.292187 0.125937 0.957187
111 2 0.375312 0.0428125 0.874063
264 1 0.33375 0.00125 0.99875
291 1 0.250625 0.084375 0.8325
343 1 0.250625 0.00125 0.915625
560 1 0.33375 0.1675 0.8325
324 1 0.416875 0.084375 0.99875
392 1 0.5 0.1675 0.99875
429 1 0.583125 0.084375 0.8325
434 1 0.5 0.084375 0.915625
537 1 0.416875 0.1675 0.915625
591 1 0.5 0.00125 0.8325
625 1 0.583125 0.00125 0.915625
40 2 0.624688 0.125937 0.957187
106 2 0.707813 0.0428125 0.874063
268 1 0.66625 0.00125 0.99875
354 1 0.749375 0.084375 0.99875
417 1 0.749375 0.1675 0.915625
456 1 0.66625 0.1675 0.8325
18 2 0.957187 0.125937 0.957187
222 1 0.99875 0.00125 0.99875
312 1 0.99875 0.1675 0.8325
394 1 0.8325 0.1675 0.99875
475 1 0.915625 0.00125 0.915625
495 1 0.8325 0.00125 0.8325
561 1 0.8325 0.084375 0.915625
624 1 0.915625 0.084375 0.8325
12 2 0.125937 0.292187 0.957187
123 2 0.0428125 0.375312 0.874063
258 1 0.084375 0.250625 0.8325
278 1 0.00125 0.33375 0.99875
363 1 0.00125 0.250625 0.915625
579 1 0.1675 0.33375 0.8325
17 2 0.209062 0.209062 0.874063
20 2 0.375312 0.375312 0.874063
234 1 0.250625 0.250625 0.99875
420 1 0.33375 0.33375 0.99875
480 1 0.250625 0.33375 0.915625
497 1 0.33375 0.250625 0.915625
78 2 0.541563 0.209062 0.874063
128 2 0.458437 0.292187 0.957187
352 1 0.583125 0.250625 0.99875
416 1 0.416875 0.250625 0.8325
742 1 0.583125 0.33375 0.915625
743 1 0.5 0.33375 0.8325
69 2 0.790938 0.292187 0.957187
91 2 0.707813 0.375312 0.874063
536 1 0.749375 0.250625 0.8325
542 1 0.66625 0.33375 0.99875
593 1 0.66625 0.250625 0.915625
118 2 0.874063 0.209062 0.874063
280 1 0.99875 0.33375 0.99875
322 1 0.915625 0.250625 0.99875
364 1 0.99875 0.250625 0.915625
662 1 0.915625 0.33375 0.915625
752 1 0.8325 0.33375 0.8325
338 1 0.084375 0.416875 0.99875
396 1 0.1675 0.5 0.99875
404 1 0.084375 0.583125 0.8325
405 1 0.084375 0.5 0.915625
528 1 0.1675 0.416875 0.915625
549 1 0.00125 0.5 0.8325
617 1 0.00125 0.583125 0.915625
84 2 0.209062 0.541563 0.874063
120 2 0.292187 0.458437 0.957187
346 1 0.250625 0.583125 0.99875
435 1 0.250625 0.416875 0.8325
713 1 0.33375 0.5 0.8325
753 1 0.33375 0.583125 0.915625
153 2 0.541563 0.541563 0.874063
470 1 0.416875 0.416875 0.99875
482 1 0.583125 0.583125 0.99875
516 1 0.5 0.5 0.99875
642 1 0.416875 0.583125 0.8325
647 1 0.583125 0.416875 0.8325
685 1 0.416875 0.5 0.915625
704 1 0.5 0.416875 0.915625
181 2 0.624688 0.458437 0.957187
606 1 0.749375 0.416875 0.99875
643 1 0.749375 0.5 0.915625
684 1 0.749375 0.583125 0.8325
726 1 0.66625 0.5 0.8325
755 1 0.66625 0.583125 0.915625
47 2 0.874063 0.541563 0.874063
81 2 0.957187 0.458437 0.957187
550 1 0.99875 0.5 0.8325
576 1 0.915625 0.583125 0.99875
618 1 0.99875 0.583125 0.915625
632 1 0.8325 0.5 0.99875
678 1 0.8325 0.416875 0.915625
707 1 0.915625 0.416875 0.8325
65 2 0.125937 0.624688 0.957187
107 2 0.0428125 0.707813 0.874063
282 1 0.00125 0.66625 0.99875
348 1 0.084375 0.749375 0.99875
438 1 0.1675 0.749375 0.915625
488 1 0.1675 0.66625 0.8325
50 2 0.292187 0.790938 0.957187
89 2 0.375312 0.707813 0.874063
523 1 0.250625 0.749375 0.8325
540 1 0.33375 0.66625 0.99875
556 1 0.250625 0.66625 0.915625
196 2 0.458437 0.624688 0.957187
578 1 0.416875 0.749375 0.99875
652 1 0.5 0.749375 0.915625
701 1 0.583125 0.749375 0.8325
718 1 0.583125 0.66625 0.915625
748 1 0.5 0.66625 0.8325
156 2 0.624688 0.790938 0.957187
171 2 0.790938 0.624688 0.957187
187 2 0.707813 0.707813 0.874063
422 1 0.66625 0.66625 0.99875
484 1 0.749375 0.749375 0.99875
131 2 0.957187 0.790938 0.957187
284 1 0.99875 0.66625 0.99875
664 1 0.8325 0.66625 0.8325
673 1 0.915625 0.749375 0.8325
712 1 0.8325 0.749375 0.915625
738 1 0.915625 0.66625 0.915625
27 2 0.125937 0.957187 0.957187
220 1 0.00125 0.99875 0.99875
362 1 0.1675 0.99875 0.8325
398 1 0.1675 0.8325 0.99875
449 1 0.00125 0.8325 0.8325
489 1 0.00125 0.915625 0.915625
584 1 0.084375 0.8325 0.915625
611 1 0.084375 0.915625 0.8325
113 2 0.209062 0.874063 0.874063
266 1 0.33375 0.99875 0.99875
336 1 0.250625 0.915625 0.99875
344 1 0.250625 0.99875 0.915625
665 1 0.33375 0.915625 0.915625
720 1 0.33375 0.8325 0.8325
39 2 0.541563 0.874063 0.874063
103 2 0.458437 0.957187 0.957187
592 1 0.5 0.99875 0.8325
608 1 0.583125 0.915625 0.99875
626 1 0.583125 0.99875 0.915625
630 1 0.5 0.8325 0.99875
694 1 0.416875 0.915625 0.8325
697 1 0.416875 0.8325 0.915625
134 2 0.790938 0.957187 0.957187
270 1 0.66625 0.99875 0.99875
654 1 0.66625 0.8325 0.8325
689 1 0.749375 0.8325 0.915625
696 1 0.749375 0.915625 0.8325
749 1 0.66625 0.915625 0.915625
2 2 0.874063 0.874063 0.874063
224 1 0.99875 0.99875 0.99875
450 1 0.99875 0.8325 0.8325
468 1 0.915625 0.915625 0.99875
476 1 0.915625 0.99875 0.915625
490 1 0.99875 0.915625 0.915625
496 1 0.8325 0.99875 0.8325
518 1 0.8325 0.8325 0.99875
ITEM: TIMESTEP
100
ITEM: NUMBER OF ATOMS
766
ITEM: BOX BOUNDS pp pp pp
-2.5499999999999998e-02 2.0374500000000001e+01
-2.5499999999999998e-02 2.0374500000000001e+01
-2.5499999999999998e-02 2.0374500000000001e+01
ITEM: ATOMS id type xs ys zs
1 2 0.136925 0.142311 0.14346
217 1 0.0654461 0.0783158 0.0579648
231 1 0.0251185 0.178305 0.187634
235 1 0.0985374 0.106109 0.0330862
237 1 0.0785277 0.0730401 0.0657297
241 1 0.201765 0.0419212 0.200585
245 1 0.0526372 0.0791264 0.0868154
247 1 0.194001 0.191016 0.0410841
122 2 0.197957 0.0425612 0.0542629
225 1 0.259997 0.10306 0.162152
228 1 0.256513 0.164082 0.0915049
263 1 0.366868 0.0438125 0.0729598
319 1 0.362661 0.20381 0.197293
388 1 0.350133 0.0683336 0.0776995
38 2 0.476152 0.12434 0.139467
76 2 0.540762 0.040112 0.0335209
276 1 0.588092 0.166463 0.0861398
303 1 0.602992 0.103281 0.143331
323 1 0.37914 0.0638639 0.087414
355 1 0.371096 0.0567144 0.0845547
367 1 0.515293 0.00922747 0.192029
391 1 0.504208 0.171235 0.0190933
77 2 0.824112 0.136195 0.137661
267 1 0.689574 0.0595013 0.0704619
320 1 0.694293 0.200672 0.199775
325 1 0.732262 0.0711781 0.082136
353 1 0.726049 0.0703008 0.0811421
372 1 0.672911 0.0662886 0.0823768
16 2 0.853646 0.0349096 0.0372314
221 1 0.951004 0.119459 0.0788574
232 1 0.94171 0.168111 0.123992
246 1 0.94084 0.0869856 0.133704
273 1 0.937009 0.0883797 0.16902
306 1 0.899095 0.217363 0.0569727
369 1 0.862194 0.0449847 0.233457
393 1 0.825979 0.171188 0.0112381
112 2 0.0381257 0.208608 0.0437441
226 1 0.0980976 0.264208 0.159745
229 1 0.16252 0.255242 0.085968
277 1 0.0504957 0.378305 0.0801152
333 1 0.0709649 0.35231 0.0843876
373 1 0.203986 0.362728 0.193035
4 2 0.192706 0.373299 0.0461464
9 2 0.379776 0.187292 0.0565147
28 2 0.292506 0.290841 0.115319
233 1 0.214184 0.212861 0.045508
419 1 0.35067 0.351826 0.022331
43 2 0.531009 0.376398 0.0381261
271 1 0.490969 0.260243 0.0904494
274 1 0.410217 0.244123 0.177074
351 1 0.57051 0.189582 0.0775651
499 1 0.519914 0.354172 0.183305
634 1 0.424916 0.312739 0.0932323
44 2 0.626552 0.299036 0.120056
66 2 0.705829 0.191403 0.0562833
304 1 0.742694 0.2619 0.165681
465 1 0.756423 0.313496 0.0924725
541 1 0.672409 0.341643 0.00817636
5 2 0.959281 0.289723 0.145192
116 2 0.855611 0.382558 0.0418687
279 1 0.949421 0.304521 0.0304733
307 1 0.815523 0.265277 0.0961486
321 1 0.914634 0.272181 0.0316535
600 1 0.851649 0.361624 0.189698
46 2 0.130733 0.469009 0.133022
98 2 0.041851 0.535896 0.0338771
290 1 0.0996731 0.600128 0.145594
299 1 0.166598 0.583367 0.0818152
329 1 0.0284977 0.519002 0.202542
337 1 0.0719363 0.370982 0.0850751
377 1 0.0502377 0.389262 0.0894004
395 1 0.173605 0.502474 0.015575
60 2 0.375334 0.529888 0.0379005
297 1 0.243249 0.405221 0.176584
302 1 0.259863 0.487598 0.0885058
345 1 0.191262 0.564041 0.0694189
463 1 0.351922 0.519743 0.182011
635 1 0.313132 0.422907 0.0913361
152 2 0.462696 0.462823 0.132394
428 1 0.412613 0.579658 0.169327
441 1 0.579779 0.4142 0.170565
469 1 0.380869 0.38471 0.0808229
481 1 0.559414 0.536766 0.0821192
515 1 0.501877 0.503745 0.0140177
544 1 0.590251 0.485997 0.0911207
545 1 0.487965 0.589724 0.085363
168 2 0.70273 0.536567 0.0411969
189 2 0.805209 0.476286 0.133801
502 1 0.643822 0.426544 0.0857592
570 1 0.687228 0.521262 0.185733
605 1 0.716422 0.396739 0.0825142
637 1 0.744407 0.583876 0.173333
330 1 0.934308 0.469809 0.155916
378 1 0.962297 0.453114 0.0791755
444 1 0.918756 0.50293 0.0697738
445 1 0.814322 0.600369 0.0924638
547 1 0.898458 0.403079 0.184374
575 1 0.917206 0.594559 0.0250889
631 1 0.838742 0.513069 0.0123525
83 2 0.143689 0.819925 0.137437
281 1 0.0600843 0.689255 0.0696369
347 1 0.064012 0.717188 0.0904888
349 1 0.0691566 0.666589 0.0856714
374 1 0.199037 0.69814 0.195156
385 1 0.0747186 0.72321 0.0901724
53 2 0.187473 0.706567 0.0495904
63 2 0.29599 0.625557 0.11798
289 1 0.256959 0.739239 0.166831
510 1 0.313052 0.755861 0.088805
539 1 0.336246 0.675236 0.00814223
159 2 0.534451 0.705626 0.0393824
194 2 0.475477 0.800976 0.134345
485 1 0.425295 0.643414 0.085183
577 1 0.398378 0.708973 0.0816695
599 1 0.520328 0.685253 0.185848
638 1 0.585169 0.747126 0.172517
154 2 0.628766 0.62995 0.123531
182 2 0.804249 0.797057 0.139255
421 1 0.671083 0.6714 0.00970646
483 1 0.720375 0.716968 0.0719766
571 1 0.758044 0.650518 0.0903816
604 1 0.648952 0.757173 0.0916346
48 2 0.961107 0.614386 0.1399
80 2 0.851281 0.717 0.0337516
283 1 0.928059 0.614436 0.0283525
386 1 0.959397 0.736461 0.0848676
427 1 0.900112 0.726317 0.187133
500 1 0.852082 0.681832 0.189819
24 2 0.0155496 0.845965 0.0794032
219 1 0.060679 0.931937 -0.000522955
238 1 0.140368 0.923564 0.0638967
242 1 0.169867 0.944574 0.142238
287 1 0.197476 0.914105 0.0664848
298 1 0.0548736 0.906276 0.196051
331 1 0.0405558 0.850351 0.213363
397 1 0.167514 0.836639 0.0116864
14 2 0.294874 0.958436 0.139896
125 2 0.380362 0.862954 0.0514963
265 1 0.282964 0.940068 0.0230006
286 1 0.271686 0.807874 0.097207
335 1 0.259813 0.903077 0.0323299
569 1 0.364259 0.851926 0.192478
356 1 0.448233 0.971611 0.0791856
368 1 0.458481 0.926385 0.147835
424 1 0.598174 0.815986 0.0959441
425 1 0.499588 0.924731 0.0751135
548 1 0.412732 0.904527 0.181749
607 1 0.586207 0.910157 0.0314877
629 1 0.514133 0.841244 0.0124348
71 2 0.626046 0.957568 0.135726
95 2 0.709332 0.856814 0.0439013
269 1 0.605144 0.927194 0.0228593
326 1 0.756475 0.964433 0.0799754
442 1 0.734352 0.899721 0.185531
464 1 0.684355 0.848645 0.190131
21 2 0.925372 0.961698 0.15396
223 1 0.931421 0.921653 0.0238275
332 1 0.938559 0.80229 0.167234
370 1 0.800949 0.96372 0.16353
467 1 0.92849 0.934236 0.0263078
517 1 0.874316 0.850596 0.0500384
574 1 0.826612 0.910977 0.0797984
601 1 0.896062 0.842263 0.0655146
117 2 0.0466431 0.0432858 0.214054
227 1 0.0962479 0.162763 0.262081
230 1 0.164443 0.0948582 0.257056
249 1 0.0446536 0.0344813 0.426249
340 1 0.0833977 0.0934871 0.337214
389 1 0.193281 0.197431 0.359066
6 2 0.371283 0.0543271 0.207021
11 2 0.203112 0.0578384 0.367653
23 2 0.298496 0.135796 0.294391
239 1 0.239791 0.0364623 0.239417
409 1 0.346429 0.0309846 0.373998
68 2 0.534982 0.0423144 0.370813
305 1 0.425581 0.174242 0.253136
308 1 0.479684 0.109221 0.272083