ITEM: TIMESTEP
0
ITEM: NUMBER OF ATOMS
766
ITEM: BOX BOUNDS pp pp pp
-2.5499999999999998e-02 2.0374500000000001e+01
-2.5499999999999998e-02 2.0374500000000001e+01
-2.5499999999999998e-02 2.0374500000000001e+01
ITEM: ATOMS id type xs ys zs
1 2 0.137137 0.142275 0.143782
217 1 0.0647377 0.0846979 0.0669066
231 1 0.0227501 0.176335 0.189215
235 1 0.0997398 0.104666 0.0316395
237 1 0.0766902 0.0782625 0.0510023
245 1 0.0499774 0.0822529 0.0852791
247 1 0.199525 0.197051 0.0445374
122 2 0.199477 0.0438901 0.0534795
225 1 0.26162 0.106135 0.160082
228 1 0.257687 0.163004 0.0923709
263 1 0.368185 0.0448819 0.078465
388 1 0.355914 0.0644853 0.0816591
323 1 0.376844 0.0635151 0.08701
355 1 0.372979 0.0541972 0.0866568
9 2 0.380557 0.185659 0.0591458
38 2 0.477839 0.117388 0.139354
76 2 0.544895 0.0376042 0.0317411
276 1 0.589232 0.166071 0.0884585
367 1 0.517815 0.00315176 0.18844
391 1 0.505014 0.167368 0.0197976
351 1 0.573056 0.185143 0.0794305
303 1 0.604686 0.108847 0.140176
267 1 0.697714 0.0588439 0.0738513
325 1 0.721331 0.0630103 0.0793692
353 1 0.737158 0.0701079 0.0819372
372 1 0.679618 0.0570564 0.0821652
66 2 0.706937 0.189427 0.0589582
45 2 0.708503 0.0676039 0.199109
77 2 0.829857 0.138644 0.138893
16 2 0.854023 0.0351839 0.0387424
221 1 0.946798 0.124249 0.0857394
232 1 0.947191 0.169368 0.115968
246 1 0.943451 0.086347 0.137183
273 1 0.940838 0.0866723 0.164232
393 1 0.824033 0.16583 0.0114644
222 1 0.983456 0.0288861 0.00348259
112 2 0.0404183 0.209231 0.0428031
226 1 0.0999523 0.26596 0.158692
229 1 0.1627 0.254909 0.0859107
277 1 0.0429149 0.383081 0.0828114
333 1 0.0642724 0.359717 0.0893892
4 2 0.19017 0.373831 0.0475773
337 1 0.0707045 0.369985 0.0861609
377 1 0.0443017 0.390976 0.0892326
373 1 0.211397 0.367713 0.196633
28 2 0.292128 0.290527 0.114489
233 1 0.215524 0.215167 0.0469098
419 1 0.352636 0.354459 0.0255824
469 1 0.378794 0.384599 0.0798561
43 2 0.530952 0.375258 0.0363706
271 1 0.492086 0.258495 0.0883391
274 1 0.407926 0.241817 0.178557
499 1 0.52213 0.356725 0.185158
634 1 0.426223 0.310097 0.0944769
44 2 0.627213 0.298745 0.121341
304 1 0.744092 0.26576 0.164264
465 1 0.757309 0.310132 0.0941425
541 1 0.673222 0.336786 0.00818951
605 1 0.720835 0.397888 0.0811364
70 2 0.713104 0.390222 0.196769
306 1 0.897749 0.224722 0.0502599
5 2 0.961661 0.291499 0.144272
116 2 0.85336 0.383253 0.0427676
279 1 0.943607 0.299047 0.0287994
307 1 0.812602 0.265485 0.0985561
321 1 0.923211 0.281106 0.0308904
600 1 0.858248 0.36701 0.191169
547 1 0.889998 0.398924 0.186583
46 2 0.127623 0.471408 0.1324
98 2 0.0413708 0.538559 0.0308805
299 1 0.167658 0.584452 0.0800374
395 1 0.170906 0.503398 0.0139767
345 1 0.184383 0.57286 0.0724446
60 2 0.37506 0.527496 0.0358845
297 1 0.240682 0.403049 0.176118
302 1 0.25826 0.487624 0.0866348
463 1 0.354496 0.522694 0.183636
635 1 0.31007 0.422653 0.0914863
152 2 0.463019 0.462575 0.131839
428 1 0.41179 0.578836 0.169292
441 1 0.579469 0.413262 0.171008
481 1 0.567316 0.530048 0.0837418
515 1 0.502077 0.503558 0.0128193
544 1 0.589064 0.485962 0.0902383
545 1 0.489394 0.588456 0.0825654
168 2 0.702172 0.53469 0.0413898
502 1 0.642897 0.426987 0.085361
570 1 0.690203 0.524835 0.188885
637 1 0.743403 0.585633 0.174232
189 2 0.808995 0.482113 0.13522
330 1 0.938372 0.474488 0.157841
378 1 0.95761 0.459643 0.0760562
444 1 0.918219 0.502221 0.0666492
575 1 0.91443 0.587905 0.0271019
631 1 0.835288 0.510325 0.00943135
290 1 0.0996082 0.601489 0.142938
281 1 0.0573845 0.702779 0.0767936
347 1 0.0674117 0.718148 0.0880937
349 1 0.0636089 0.668732 0.0896555
385 1 0.0696052 0.723032 0.0899032
53 2 0.184777 0.70723 0.0518452
374 1 0.205398 0.704424 0.199388
63 2 0.296851 0.625512 0.116501
289 1 0.257667 0.737574 0.166323
510 1 0.309207 0.755559 0.0894475
539 1 0.330074 0.678002 0.00559093
49 2 0.385839 0.711749 0.195024
159 2 0.533282 0.705475 0.038365
485 1 0.427129 0.64193 0.0846046
577 1 0.402849 0.706882 0.079972
599 1 0.523381 0.686426 0.189365
638 1 0.586822 0.747041 0.174166
154 2 0.629285 0.630605 0.123733
421 1 0.669976 0.669535 0.00900704
483 1 0.723987 0.719534 0.0766017
571 1 0.7559 0.65074 0.0855998
604 1 0.647689 0.754207 0.0867223
155 2 0.713532 0.716166 0.197897
445 1 0.810368 0.603629 0.0909576
48 2 0.959865 0.61455 0.135687
80 2 0.8517 0.714653 0.0320655
283 1 0.921504 0.606572 0.0209585
386 1 0.957138 0.738021 0.0850443
427 1 0.900008 0.724638 0.188675
500 1 0.856247 0.685802 0.191848
83 2 0.145859 0.823886 0.139233
24 2 0.0161515 0.846477 0.0812906
238 1 0.14287 0.923639 0.0609699
242 1 0.166669 0.95079 0.148807
287 1 0.195494 0.914493 0.0626263
298 1 0.0559206 0.908341 0.196335
397 1 0.165348 0.836488 0.0108026
220 1 0.0522132 0.972939 0.0999685
14 2 0.294648 0.957728 0.136858
125 2 0.379705 0.861512 0.0529116
265 1 0.271262 0.928967 0.0209053
286 1 0.273086 0.802694 0.0983465
335 1 0.258895 0.909554 0.029393
569 1 0.370396 0.854965 0.195749
194 2 0.479583 0.802544 0.135175
356 1 0.452056 0.970006 0.0819149
368 1 0.45274 0.925837 0.148069
424 1 0.599776 0.813122 0.0945694
425 1 0.497973 0.926141 0.0769136
548 1 0.415833 0.905609 0.178794
607 1 0.580334 0.911297 0.0204436
629 1 0.508183 0.836224 0.00845327
269 1 0.598536 0.916266 0.0284962
71 2 0.631243 0.954636 0.133104
95 2 0.711285 0.852805 0.0454192
326 1 0.762789 0.961133 0.0798947
442 1 0.738322 0.898709 0.18668
464 1 0.691316 0.851152 0.194744
182 2 0.811729 0.80094 0.139699
21 2 0.926389 0.958923 0.15169
223 1 0.934913 0.925317 0.0177298
332 1 0.936315 0.806866 0.169673
370 1 0.802683 0.965073 0.165439
467 1 0.926963 0.933645 0.0238213
517 1 0.876752 0.851193 0.0466338
574 1 0.824407 0.912956 0.0770529
601 1 0.89835 0.843423 0.0625769
117 2 0.0469553 0.0423134 0.217238
227 1 0.0972439 0.162723 0.262361
230 1 0.164063 0.095356 0.257132
340 1 0.0829314 0.0955163 0.338624
341 1 0.0765104 0.060548 0.382027
241 1 0.210248 0.0454481 0.207974
6 2 0.369538 0.0545876 0.208914
11 2 0.201216 0.0576224 0.366389
23 2 0.298354 0.13575 0.295946
239 1 0.23875 0.0343725 0.240927
409 1 0.345767 0.0328762 0.375051
473 1 0.385186 0.0612872 0.375378
68 2 0.535518 0.0401881 0.370736
305 1 0.426548 0.173561 0.251938
308 1 0.478217 0.109106 0.273655
327 1 0.555406 0.0377369 0.20892
513 1 0.526738 0.198549 0.358029
595 1 0.444474 0.111623 0.308891
67 2 0.613059 0.124926 0.28814
275 1 0.751002 0.16962 0.25874
472 1 0.767766 0.106664 0.310735
529 1 0.68981 0.038139 0.378878
627 1 0.71871 0.043406 0.393722
369 1 0.868635 0.0432664 0.234611
10 2 0.943993 0.151234 0.28435
127 2 0.86753 0.0389901 0.372651
251 1 0.978919 0.042894 0.330779
272 1 0.809634 0.110048 0.27125
357 1 0.901884 0.0422042 0.249462
389 1 0.197028 0.202057 0.363621
8 2 0.0538538 0.215082 0.367715
13 2 0.0525576 0.37692 0.212205
15 2 0.137373 0.305307 0.295297
243 1 0.0394099 0.238665 0.240421
399 1 0.0256615 0.347737 0.369781
491 1 0.0562752 0.393288 0.369541
319 1 0.368144 0.20993 0.202293
109 2 0.220184 0.379534 0.379333
114 2 0.386861 0.209741 0.373432
119 2 0.373812 0.37435 0.200555
129 2 0.220973 0.220856 0.215832
313 1 0.243892 0.244794 0.348191
350 1 0.267281 0.332516 0.265173
371 1 0.328516 0.270678 0.27063
639 1 0.350127 0.349647 0.346142
75 2 0.457874 0.297888 0.287242
96 2 0.544198 0.221073 0.206797
102 2 0.541462 0.373799 0.37462
563 1 0.575676 0.243964 0.341058
320 1 0.696895 0.206117 0.208784
572 1 0.609745 0.324661 0.265048
41 2 0.702441 0.201787 0.370544
130 2 0.763681 0.308057 0.300588
387 1 0.655345 0.267827 0.259707
679 1 0.668419 0.356969 0.357156
619 1 0.847083 0.216142 0.361169
25 2 0.851855 0.242554 0.225542
26 2 0.869189 0.37511 0.379632
244 1 0.953672 0.312697 0.278116
400 1 0.94241 0.290401 0.312905
457 1 0.866648 0.239202 0.360427
486 1 0.941994 0.329909 0.273251
329 1 0.0295714 0.526204 0.212052
51 2 0.0416637 0.533216 0.363443
285 1 0.106313 0.490477 0.261374
288 1 0.164016 0.436345 0.261618
383 1 0.03551 0.552067 0.229791
511 1 0.192614 0.524451 0.352419
554 1 0.121328 0.440739 0.310674
82 2 0.373796 0.538918 0.373073
90 2 0.214383 0.547631 0.20593
97 2 0.292583 0.459298 0.284359
582 1 0.24319 0.574477 0.343828
188 2 0.547141 0.54701 0.205369
573 1 0.48754 0.435221 0.264356
602 1 0.433785 0.488342 0.263464
669 1 0.513612 0.514169 0.345768
716 1 0.403914 0.405395 0.344282
731 1 0.565958 0.565075 0.35176
157 2 0.701006 0.538725 0.37715
193 2 0.620615 0.457086 0.287845
423 1 0.749884 0.503107 0.259318
736 1 0.744911 0.425459 0.342796
99 2 0.875001 0.557148 0.231938
126 2 0.952014 0.449118 0.286889
426 1 0.82251 0.431955 0.265484
729 1 0.887844 0.550068 0.361358
763 1 0.850456 0.52 0.354623
52 2 0.125359 0.625192 0.290446
62 2 0.0582614 0.712531 0.205912
300 1 0.159929 0.763045 0.273216
478 1 0.107908 0.770428 0.313969
521 1 0.0271979 0.688113 0.383274
615 1 0.054385 0.719197 0.382072
603 1 0.320729 0.607484 0.261967
64 2 0.201602 0.700694 0.382472
133 2 0.30185 0.755556 0.30183
334 1 0.260805 0.652235 0.259599
687 1 0.35925 0.668651 0.362633
170 2 0.540004 0.697643 0.373777
180 2 0.453928 0.620145 0.285882
446 1 0.489451 0.763082 0.26966
466 1 0.593766 0.662002 0.25556
740 1 0.421328 0.739029 0.344827
509 1 0.650127 0.605688 0.265803
158 2 0.77602 0.62694 0.293977
169 2 0.62455 0.780486 0.297167
660 1 0.752035 0.750415 0.330424
672 1 0.680565 0.681472 0.362706
384 1 0.976174 0.627633 0.291128
61 2 0.957614 0.772385 0.289883
101 2 0.875672 0.698622 0.378759
522 1 0.959853 0.646486 0.291636
546 1 0.81858 0.751015 0.276311
633 1 0.888472 0.682393 0.231622
331 1 0.0410846 0.84588 0.215128
3 2 0.157439 0.939256 0.279604
121 2 0.0280714 0.86201 0.376176
250 1 0.0543907 0.968235 0.32769
301 1 0.074669 0.833408 0.252502
375 1 0.0617601 0.922231 0.206708
610 1 0.217247 0.84706 0.353503
19 2 0.377638 0.862422 0.371316
22 2 0.249433 0.849211 0.221631
240 1 0.307435 0.951599 0.282146
410 1 0.311353 0.952214 0.30865
451 1 0.238164 0.862756 0.351566
501 1 0.329735 0.938442 0.277248
92 2 0.553478 0.87658 0.226402
115 2 0.447475 0.960747 0.289527
443 1 0.424351 0.824933 0.256979
721 1 0.549855 0.885081 0.356233
765 1 0.5176 0.852858 0.350885
328 1 0.620202 0.98332 0.290458
42 2 0.766812 0.9768 0.289169
79 2 0.714598 0.870765 0.37046
530 1 0.641375 0.966889 0.290464
543 1 0.727143 0.841463 0.247028
636 1 0.684906 0.887618 0.237201
108 2 0.85064 0.870188 0.249597
252 1 0.925813 0.932439 0.333804
358 1 0.949421 0.945468 0.282978
376 1 0.969118 0.916015 0.270924
655 1 0.907954 0.904555 0.359712
762 1 0.85544 0.84001 0.370065
249 1 0.0554045 0.0282936 0.425965
30 2 0.127549 0.132438 0.465225
105 2 0.0398397 0.0435423 0.551898
262 1 0.15861 0.0956179 0.589212
293 1 0.0924586 0.158892 0.591214
309 1 0.0123401 0.166735 0.498849
359 1 0.164942 0.0170595 0.504583
365 1 0.0603537 0.028936 0.432337
35 2 0.364544 0.0390276 0.51415
257 1 0.24634 0.0851446 0.497791
260 1 0.255171 0.170186 0.419619
317 1 0.244333 0.026644 0.558405
455 1 0.353833 0.183708 0.514808
594 1 0.306986 0.118221 0.429563
144 2 0.462671 0.129052 0.45705
418 1 0.59157 0.1563 0.422852
431 1 0.416419 0.166624 0.57698
461 1 0.534735 0.0695111 0.556279
493 1 0.518569 0.016818 0.50446
534 1 0.463551 0.0961528 0.59187
535 1 0.571515 0.0655462 0.505929
178 2 0.549088 0.197772 0.544775
151 2 0.697607 0.0441558 0.521937
177 2 0.793039 0.126947 0.449291
498 1 0.638023 0.102413 0.425168
559 1 0.687165 0.187234 0.523023
598 1 0.738592 0.169268 0.575255
310 1 0.922838 0.142303 0.441977
366 1 0.97674 0.10961 0.40436
415 1 0.92006 0.094295 0.486876
538 1 0.917164 0.157728 0.417152
567 1 0.90333 0.0487333 0.552015
589 1 0.877609 0.0471159 0.533299
58 2 0.0396393 0.370202 0.518051
292 1 0.0848458 0.250673 0.496983
295 1 0.171026 0.257046 0.420464
379 1 0.0269166 0.240873 0.564658
487 1 0.18691 0.351082 0.513584
555 1 0.118626 0.314562 0.431322
73 2 0.214626 0.211202 0.541629
85 2 0.375474 0.373744 0.538516
104 2 0.296964 0.287997 0.455151
613 1 0.250882 0.337716 0.582124
562 1 0.494073 0.262996 0.434618
623 1 0.414397 0.244269 0.50611
663 1 0.511953 0.3435 0.508781
728 1 0.579758 0.3408 0.574307
737 1 0.420318 0.333868 0.417088
162 2 0.708193 0.372382 0.535456
198 2 0.622278 0.286729 0.456902
430 1 0.724228 0.233583 0.520579
503 1 0.658039 0.264183 0.587395
717 1 0.760728 0.31897 0.432876
94 2 0.846257 0.218088 0.533403
110 2 0.951411 0.274418 0.450397
380 1 0.938592 0.309875 0.589099
433 1 0.819991 0.259948 0.413951
734 1 0.922391 0.330118 0.5791
747 1 0.848747 0.351359 0.510659
693 1 0.890621 0.383745 0.512028
136 2 0.132971 0.460142 0.451889
408 1 0.155982 0.423945 0.585142
437 1 0.155837 0.589354 0.423813
447 1 0.0250828 0.511127 0.507472
505 1 0.0799438 0.557136 0.529633
524 1 0.0755994 0.571139 0.503802
525 1 0.0848911 0.487258 0.581924
174 2 0.204581 0.542439 0.544772
583 1 0.259203 0.498372 0.424752
612 1 0.244616 0.407 0.510932
653 1 0.340253 0.505338 0.50667
750 1 0.338814 0.417215 0.41581
759 1 0.34045 0.580687 0.57776
199 2 0.457763 0.456416 0.453195
200 2 0.536798 0.536732 0.537048
674 1 0.403009 0.56704 0.514518
682 1 0.491957 0.422761 0.585016
690 1 0.580754 0.500361 0.414886
695 1 0.572237 0.402187 0.51026
705 1 0.411598 0.504538 0.573618
711 1 0.489612 0.588596 0.423929
214 2 0.794534 0.464133 0.460232
666 1 0.665878 0.41516 0.41503
667 1 0.650081 0.589381 0.588633
675 1 0.736495 0.520169 0.569439
702 1 0.733285 0.562537 0.532576
719 1 0.668 0.501037 0.502375
137 2 0.862908 0.548091 0.553249
448 1 0.92759 0.462346 0.469886
492 1 0.972589 0.44489 0.429253
506 1 0.990134 0.588515 0.590073
651 1 0.811831 0.599805 0.43491
698 1 0.918267 0.498108 0.410991
166 2 0.0494295 0.699642 0.520763
479 1 0.0957985 0.63623 0.424585
557 1 0.167143 0.741632 0.57585
580 1 0.188 0.689071 0.525268
439 1 0.107785 0.796762 0.597633
141 2 0.379464 0.704125 0.530052
197 2 0.289709 0.619413 0.459861
403 1 0.239526 0.724907 0.521837
454 1 0.264025 0.662515 0.583019
756 1 0.315321 0.762865 0.43512
215 2 0.466234 0.793837 0.456503
658 1 0.593435 0.654306 0.589567
661 1 0.41202 0.665464 0.407097
683 1 0.571891 0.733008 0.523325
700 1 0.507487 0.745369 0.578712
751 1 0.509122 0.673741 0.507469
204 2 0.707948 0.693635 0.540496
208 2 0.778605 0.77417 0.452757
210 2 0.620829 0.621224 0.460504
741 1 0.741657 0.661307 0.415794
754 1 0.648239 0.764796 0.43316
185 2 0.953454 0.608274 0.455648
616 1 0.969752 0.77766 0.455276
641 1 0.893311 0.723101 0.511262
724 1 0.931265 0.663385 0.582978
744 1 0.846009 0.676231 0.511097
173 2 0.13095 0.802652 0.444768
342 1 0.132027 0.949191 0.40904
360 1 0.157381 0.928296 0.444983
436 1 0.0884693 0.92428 0.488178
527 1 0.147677 0.926324 0.410935
551 1 0.042296 0.867117 0.524628
585 1 0.0530968 0.910172 0.553451
87 2 0.219875 0.84876 0.534833
124 2 0.273639 0.949097 0.435525
406 1 0.264592 0.81767 0.41874
725 1 0.35458 0.852982 0.505882
745 1 0.319897 0.929632 0.580308
708 1 0.380053 0.884907 0.506768
145 2 0.551887 0.863629 0.544138
462 1 0.598759 0.981249 0.58797
474 1 0.439032 0.970985 0.430686
494 1 0.454982 0.927191 0.467213
644 1 0.596421 0.818766 0.425999
677 1 0.49231 0.924442 0.421724
195 2 0.446418 0.948949 0.592891
183 2 0.617597 0.948029 0.443379
628 1 0.786857 0.970808 0.455794
648 1 0.725638 0.890469 0.508985
714 1 0.679012 0.842636 0.505026
757 1 0.665737 0.929232 0.582528
31 2 0.854612 0.85931 0.524654
86 2 0.952291 0.957243 0.464857
552 1 0.958818 0.808101 0.471152
568 1 0.935182 0.952208 0.598973
586 1 0.952681 0.93238 0.597936
590 1 0.808477 0.971931 0.47324
686 1 0.899406 0.835777 0.405824
703 1 0.844981 0.907589 0.405551
253 1 0.0488611 0.0231957 0.753326
314 1 0.087745 0.10409 0.650582
315 1 0.0632905 0.0420696 0.740496
381 1 0.065157 0.0595504 0.741214
390 1 0.192106 0.195771 0.684696
56 2 0.190403 0.0626735 0.708521
36 2 0.29841 0.123416 0.622317
294 1 0.262032 0.168657 0.745696
504 1 0.302479 0.109148 0.763386
531 1 0.342857 0.00913004 0.678811
565 1 0.398689 0.0712472 0.701464
54 2 0.387111 0.198032 0.703844
160 2 0.527222 0.0372748 0.687771
192 2 0.473286 0.127095 0.793283
458 1 0.418801 0.0740119 0.63575
597 1 0.589833 0.171692 0.745269
620 1 0.528293 0.189473 0.685416
414 1 0.792189 0.101705 0.60631
146 2 0.634682 0.12123 0.630016
184 2 0.766436 0.10676 0.758242
411 1 0.685621 0.00933191 0.673195
459 1 0.716717 0.00919222 0.706924
564 1 0.76533 0.0893658 0.634819
621 1 0.638964 0.103399 0.765068
55 2 0.943253 0.152144 0.611649
72 2 0.868825 0.0303502 0.699758
255 1 0.981465 0.0480085 0.664818
382 1 0.960405 0.116684 0.736259
432 1 0.904897 0.153139 0.737003
514 1 0.83706 0.187639 0.683971
312 1 0.953776 0.161333 0.778221
37 2 0.0510908 0.203858 0.705944
57 2 0.126322 0.297453 0.620429
261 1 0.152593 0.269433 0.760268
453 1 0.105372 0.309834 0.763339
519 1 0.00887888 0.338571 0.683965
33 2 0.196645 0.384803 0.704064
587 1 0.0610242 0.397646 0.703201
622 1 0.322121 0.266667 0.606674
135 2 0.298789 0.300581 0.763312
339 1 0.253772 0.255669 0.659113
671 1 0.353608 0.348984 0.664727
149 2 0.541078 0.37778 0.696932
176 2 0.461323 0.287706 0.61679
413 1 0.488512 0.27294 0.755551
471 1 0.578106 0.243563 0.67525
723 1 0.423346 0.338482 0.73872
147 2 0.708726 0.220589 0.694975
150 2 0.626286 0.303056 0.78281
657 1 0.776616 0.31472 0.758388
688 1 0.69114 0.361355 0.678174
533 1 0.795787 0.295102 0.760836
161 2 0.806918 0.310642 0.630679
100 2 0.897297 0.38656 0.719402
520 1 0.932171 0.280064 0.627021
596 1 0.918238 0.257271 0.686888
143 2 0.0413319 0.528239 0.697575
186 2 0.128072 0.468771 0.796244
452 1 0.0919556 0.429152 0.631085
558 1 0.174019 0.587594 0.744978
609 1 0.1891 0.522271 0.685291
164 2 0.380193 0.538437 0.69686
190 2 0.291181 0.456671 0.620681
440 1 0.257547 0.505246 0.741098
477 1 0.245997 0.576627 0.675197
758 1 0.319913 0.436439 0.755342
213 2 0.465137 0.463224 0.785953
656 1 0.411634 0.407063 0.671848
659 1 0.583309 0.582287 0.662706
691 1 0.500294 0.59115 0.746091
710 1 0.592341 0.498269 0.747361
761 1 0.515615 0.513808 0.674571
206 2 0.713165 0.544231 0.690978
209 2 0.624552 0.460207 0.616943
211 2 0.769617 0.433605 0.764527
722 1 0.744373 0.425348 0.649318
746 1 0.643982 0.440049 0.761324
646 1 0.807813 0.440394 0.613645
175 2 0.954285 0.449671 0.602125
588 1 0.989697 0.449741 0.792005
650 1 0.912055 0.522388 0.71807
739 1 0.922785 0.579906 0.676017
766 1 0.850566 0.510974 0.687951
550 1 0.967646 0.472424 0.793276
138 2 0.124693 0.62606 0.626808
191 2 0.114944 0.758901 0.775214
401 1 0.0150679 0.680289 0.673955
507 1 0.0190073 0.722062 0.711489
581 1 0.0896498 0.750742 0.642977
614 1 0.104924 0.637006 0.765667
139 2 0.219444 0.707669 0.69053
167 2 0.305275 0.627414 0.781146
668 1 0.311657 0.775943 0.75515
680 1 0.362183 0.688995 0.678382
526 1 0.291632 0.796591 0.755324
202 2 0.547632 0.712787 0.696394
207 2 0.463068 0.624871 0.618765
212 2 0.434868 0.7705 0.761906
730 1 0.430855 0.748053 0.645226
733 1 0.439665 0.644425 0.760194
709 1 0.767144 0.794201 0.604215
699 1 0.789002 0.633435 0.769855
203 2 0.629195 0.623066 0.778307
216 2 0.763276 0.756398 0.743492
640 1 0.685644 0.684233 0.675945
727 1 0.779864 0.633682 0.763125
732 1 0.765874 0.771159 0.630373
760 1 0.63952 0.782335 0.758223
692 1 0.800766 0.767151 0.602286
201 2 0.808094 0.64191 0.636079
140 2 0.968574 0.615617 0.797151
165 2 0.957824 0.796479 0.600349
172 2 0.89711 0.720772 0.716984
402 1 0.931795 0.636183 0.622486
32 2 0.160871 0.949614 0.61497
93 2 0.0450442 0.856783 0.695992
254 1 0.0451117 0.965698 0.652349
316 1 0.130065 0.948304 0.741269
407 1 0.146826 0.928265 0.742405
512 1 0.187838 0.835654 0.689539
362 1 0.174819 0.941957 0.744391
318 1 0.306332 0.931045 0.600406
142 2 0.31451 0.801162 0.623803
59 2 0.284786 0.97165 0.794287
74 2 0.383506 0.893478 0.714603
532 1 0.287807 0.929617 0.62082
553 1 0.257553 0.904457 0.691045
649 1 0.443433 0.806485 0.603317
566 1 0.442461 0.994308 0.781467
645 1 0.515468 0.910974 0.720496
735 1 0.579983 0.916541 0.66769
764 1 0.512092 0.851916 0.686002
592 1 0.477548 0.959981 0.78413
205 2 0.640869 0.800874 0.624819
676 1 0.617319 0.805353 0.757157
148 2 0.796754 0.960675 0.601415
163 2 0.609125 0.959764 0.789878
179 2 0.719024 0.888244 0.710272
412 1 0.619848 0.936118 0.629384
132 2 0.957563 0.9446 0.789914
256 1 0.920719 0.913199 0.669574
670 1 0.846888 0.842896 0.688851
681 1 0.854676 0.90427 0.720304
706 1 0.910063 0.851897 0.718308
715 1 0.901072 0.894458 0.684146
450 1 0.963867 0.809791 0.788618
88 2 0.131513 0.141093 0.819306
29 2 0.00953796 0.0763622 0.852827
236 1 0.0825767 0.0318491 0.946715
248 1 0.164685 0.146783 0.944912
259 1 0.0619018 0.169836 0.930117
296 1 0.174363 0.101654 0.935949
361 1 0.154779 0.0131004 0.830781
7 2 0.289973 0.146288 0.960835
111 2 0.378098 0.05944 0.870987
264 1 0.30072 0.0284253 0.97507
291 1 0.259956 0.0954938 0.817723
343 1 0.255637 0.0364637 0.901907
560 1 0.361129 0.195318 0.841624
324 1 0.424401 0.080588 0.985907
392 1 0.454586 0.152791 0.925293
434 1 0.498408 0.0931715 0.922593
537 1 0.42503 0.17353 0.917845
591 1 0.526296 0.0250679 0.876021
625 1 0.577732 0.0306219 0.904288
429 1 0.600684 0.0976626 0.807142
40 2 0.618896 0.1397 0.947717
106 2 0.707378 0.038189 0.86863
268 1 0.652568 0.0192387 0.976877
354 1 0.743924 0.0957106 0.973609
417 1 0.740892 0.173132 0.920289
456 1 0.687422 0.187619 0.832352
18 2 0.931858 0.141351 0.956233
394 1 0.816582 0.0963384 0.923503
475 1 0.890685 0.0766405 0.851849
495 1 0.870862 0.055609 0.832675
561 1 0.833166 0.0658174 0.913455
624 1 0.885963 0.079169 0.824852
118 2 0.841563 0.194188 0.839128
311 1 0.0326992 0.205657 0.88903
12 2 0.144973 0.275737 0.952633
123 2 0.0567776 0.372151 0.867503
258 1 0.103189 0.270729 0.807572
278 1 0.0354929 0.331938 0.981752
363 1 0.0376039 0.245509 0.906559
579 1 0.196336 0.353347 0.844262
17 2 0.233276 0.223313 0.854541
20 2 0.381529 0.376087 0.856715
234 1 0.279038 0.277874 0.975114
420 1 0.30964 0.304528 0.932422
480 1 0.242886 0.349533 0.882473
497 1 0.357581 0.244381 0.880285
78 2 0.54493 0.221681 0.861396
128 2 0.443164 0.28686 0.957871
352 1 0.57536 0.260106 0.993532
416 1 0.419872 0.253765 0.823702
742 1 0.585123 0.336495 0.912407
743 1 0.51386 0.350587 0.837639
69 2 0.794206 0.281619 0.959985
91 2 0.715446 0.374282 0.873144
536 1 0.733088 0.248991 0.829829
542 1 0.616281 0.316073 0.91969
593 1 0.674377 0.254956 0.908872
34 2 0.959879 0.280513 0.802535
280 1 0.939662 0.340787 0.918263
322 1 0.913384 0.255333 0.919368
364 1 0.931365 0.259985 0.926336
662 1 0.907963 0.344091 0.933809
752 1 0.839069 0.336774 0.836839
338 1 0.0836636 0.421763 0.982147
396 1 0.158392 0.441006 0.923811
404 1 0.0988009 0.599645 0.812322
405 1 0.0928688 0.494475 0.921679
528 1 0.171768 0.425358 0.916578
549 1 0.0329078 0.532158 0.876232
617 1 0.0358791 0.579534 0.904874
84 2 0.223939 0.542848 0.859569
120 2 0.289542 0.440492 0.951862
346 1 0.263359 0.572988 0.989965
435 1 0.260061 0.421846 0.821099
713 1 0.348314 0.507138 0.831212
753 1 0.337459 0.587648 0.910959
153 2 0.547702 0.551534 0.861145
470 1 0.423949 0.421994 0.975122
482 1 0.581831 0.58813 0.98797
516 1 0.465442 0.462485 0.919659
642 1 0.430406 0.594806 0.816548
647 1 0.594717 0.431969 0.816358
685 1 0.420173 0.500253 0.90834
704 1 0.501887 0.413582 0.908374
181 2 0.615907 0.456495 0.946021
606 1 0.749702 0.431137 0.980307
643 1 0.746294 0.501241 0.917501
684 1 0.738657 0.578151 0.82811
726 1 0.67649 0.504341 0.828247
755 1 0.668477 0.585844 0.913152
47 2 0.852181 0.527378 0.827689
81 2 0.945597 0.464433 0.940054
576 1 0.914291 0.58814 0.910334
618 1 0.930233 0.59243 0.9179
632 1 0.816519 0.441711 0.922217
678 1 0.837371 0.404234 0.906515
707 1 0.908023 0.403374 0.840441
65 2 0.142839 0.616358 0.945197
107 2 0.0419488 0.716431 0.884574
282 1 0.0203089 0.649707 0.984618
348 1 0.0714924 0.7763 0.990791
438 1 0.172835 0.743645 0.916377
488 1 0.193104 0.678144 0.833863
398 1 0.165663 0.765598 0.922601
50 2 0.281204 0.797159 0.957594
89 2 0.371855 0.717455 0.87225
523 1 0.24478 0.736067 0.823418
540 1 0.320106 0.612042 0.918596
556 1 0.254559 0.674488 0.90748
196 2 0.453611 0.619 0.946942
578 1 0.422238 0.756812 0.983748
652 1 0.500852 0.746357 0.918872
701 1 0.580494 0.7361 0.829324
718 1 0.584493 0.670089 0.907742
748 1 0.50529 0.680769 0.82812
156 2 0.617412 0.79845 0.944806
171 2 0.796886 0.617101 0.941085
187 2 0.708246 0.709677 0.860688
422 1 0.628036 0.638331 0.915881
484 1 0.745916 0.75448 0.969388
508 1 0.972095 0.786181 0.804882
284 1 0.918865 0.680155 0.93118
664 1 0.839546 0.6724 0.826487
673 1 0.913003 0.730304 0.845318
712 1 0.836537 0.737963 0.9038
738 1 0.925119 0.655517 0.914411
219 1 0.0573003 0.9285 0.998045
218 1 0.0567114 0.969931 0.90085
27 2 0.171719 0.944632 0.941913
449 1 0.0499369 0.854529 0.853681
489 1 0.0361077 0.864749 0.858678
584 1 0.0848269 0.840578 0.925312
611 1 0.0918549 0.919422 0.804342
113 2 0.200931 0.85199 0.828631
266 1 0.340006 0.907466 0.936454
336 1 0.290543 0.914546 0.90739
344 1 0.311106 0.936803 0.91427
665 1 0.336758 0.945183 0.908215
720 1 0.33559 0.840092 0.828591
39 2 0.525977 0.848035 0.837459
103 2 0.45529 0.943502 0.942188
608 1 0.596553 0.922434 0.910804
626 1 0.581606 0.924046 0.915762
630 1 0.435649 0.815284 0.926941
694 1 0.404636 0.906518 0.835218
697 1 0.404479 0.839076 0.89451
460 1 0.786022 0.966526 0.800217
134 2 0.795109 0.935948 0.942
270 1 0.675133 0.916419 0.938689
654 1 0.677129 0.838503 0.825632
689 1 0.73396 0.830842 0.90063
696 1 0.724812 0.90608 0.838559
749 1 0.642602 0.920881 0.907297
131 2 0.945934 0.807154 0.94424
2 2 0.843851 0.843207 0.828779
224 1 0.939774 0.979945 0.910246
468 1 0.914808 0.920792 0.906038
476 1 0.908711 0.97448 0.902803
490 1 0.958584 0.926242 0.914248
496 1 0.801002 0.97085 0.807355
518 1 0.816999 0.812976 0.956937
ITEM: TIMESTEP
100
ITEM: NUMBER OF ATOMS
766
ITEM: BOX BOUNDS pp pp pp
-2.5499999999999998e-02 2.0374500000000001e+01
-2.5499999999999998e-02 2.0374500000000001e+01
-2.5499999999999998e-02 2.0374500000000001e+01
ITEM: ATOMS id type xs ys zs
1 2 0.137638 0.138166 0.142325
217 1 0.0531633 0.0876625 0.0686556
231 1 0.0203329 0.174726 0.187633
235 1 0.0971037 0.102437 0.0295861
237 1 0.0707825 0.0863814 0.0420695
245 1 0.0438411 0.0834317 0.0833991
247 1 0.2103 0.211261 0.0474906
122 2 0.200629 0.0442693 0.0507501
225 1 0.268403 0.117078 0.154407
228 1 0.25926 0.164631 0.0950297
263 1 0.380857 0.0511116 0.089263
388 1 0.37447 0.0541055 0.0920948
323 1 0.384324 0.0548213 0.0904003
355 1 0.38475 0.0633775 0.0958172
9 2 0.380032 0.183044 0.061615
38 2 0.481612 0.113018 0.141026
76 2 0.546295 0.0364116 0.0325518
276 1 0.58551 0.171416 0.0847351
367 1 0.522492 -0.00819643 0.180005
391 1 0.505481 0.162307 0.0183846
351 1 0.578735 0.175959 0.0844449
303 1 0.60766 0.121375 0.136357
267 1 0.708586 0.054208 0.0806314
325 1 0.735634 0.0758088 0.0894784
353 1 0.74667 0.0509379 0.0799566
372 1 0.68918 0.0593686 0.0867311
66 2 0.704094 0.187432 0.0600579
45 2 0.705684 0.0716671 0.203109
77 2 0.828684 0.138605 0.140002
16 2 0.856288 0.0338964 0.0380033
221 1 0.946792 0.134334 0.0907056
232 1 0.948582 0.165336 0.10613
246 1 0.945034 0.0864088 0.148299
273 1 0.947098 0.0848578 0.156431
393 1 0.822251 0.162713 0.0110402
222 1 0.984345 0.0250156 0.000113831
112 2 0.0444965 0.210882 0.0422567
226 1 0.103866 0.267384 0.156947
229 1 0.162535 0.255579 0.0868114
277 1 0.0246563 0.393111 0.0858452
333 1 0.054748 0.372835 0.0934545
4 2 0.186946 0.373238 0.0506129
337 1 0.0718365 0.379147 0.0940737
377 1 0.0458679 0.397487 0.0980567
373 1 0.210346 0.373208 0.196394
28 2 0.293491 0.291513 0.113566
233 1 0.216669 0.21833 0.0476777
419 1 0.357184 0.359109 0.0320411
469 1 0.375214 0.382331 0.0754382
43 2 0.53104 0.373024 0.0349102
271 1 0.492478 0.255402 0.0853956
274 1 0.406676 0.24629 0.176804
499 1 0.527116 0.361418 0.188528
634 1 0.429265 0.307795 0.0944593
44 2 0.629107 0.298587 0.1231
304 1 0.754199 0.273588 0.158147
465 1 0.761827 0.308243 0.0968025
541 1 0.677935 0.32502 0.00408285
605 1 0.728358 0.39349 0.0806412
70 2 0.71256 0.395242 0.195885
306 1 0.902468 0.233219 0.0471895
5 2 0.962946 0.292945 0.140534
116 2 0.852918 0.381782 0.0449494
279 1 0.937288 0.290286 0.0193739
307 1 0.813518 0.266561 0.0981858
321 1 0.931535 0.291528 0.0353
600 1 0.868787 0.373344 0.19223
547 1 0.879029 0.384661 0.191027
46 2 0.125611 0.475621 0.133745
98 2 0.0399799 0.540655 0.0292448
299 1 0.171463 0.591452 0.0647468
395 1 0.165686 0.502272 0.0126331
345 1 0.175778 0.572982 0.0836445
60 2 0.373945 0.525705 0.034388
297 1 0.242429 0.400528 0.17825
302 1 0.256384 0.487937 0.0832413
463 1 0.359068 0.528817 0.187155
635 1 0.30898 0.42349 0.088891
152 2 0.463382 0.462694 0.130753
428 1 0.410509 0.57782 0.168737
441 1 0.578001 0.412071 0.170784
481 1 0.58357 0.510991 0.0881064
515 1 0.501749 0.501558 0.0109402
544 1 0.587393 0.492118 0.0824943
545 1 0.490964 0.586675 0.0804431
168 2 0.702255 0.533901 0.0413213
502 1 0.643288 0.430369 0.0869844
570 1 0.694331 0.531344 0.195159
637 1 0.744402 0.589593 0.172127
189 2 0.812522 0.485238 0.136338
330 1 0.946736 0.483453 0.159664
378 1 0.952394 0.463671 0.0711941
444 1 0.921647 0.495472 0.0631454
575 1 0.902299 0.572378 0.023915
631 1 0.82912 0.505444 0.00503966
290 1 0.0980752 0.604638 0.13986
281 1 0.0635948 0.734987 0.0874979
347 1 0.0653803 0.726128 0.0884147
349 1 0.0732517 0.665646 0.0965725
385 1 0.0656192 0.731707 0.0931402
53 2 0.18406 0.705444 0.0508798
374 1 0.214631 0.710289 0.201631
63 2 0.297819 0.627674 0.114904
289 1 0.264343 0.7392 0.169762
510 1 0.299555 0.761506 0.0908534
539 1 0.32233 0.681842 -0.000283018
49 2 0.38977 0.709237 0.19499
159 2 0.532979 0.703984 0.0359671
485 1 0.431573 0.640205 0.0897084
577 1 0.406248 0.709674 0.0776652
599 1 0.529712 0.68933 0.197297
638 1 0.589195 0.746736 0.179178
154 2 0.627623 0.631271 0.124235
421 1 0.667453 0.664576 0.0104159
483 1 0.729535 0.718385 0.082785
571 1 0.753988 0.654701 0.0799946
604 1 0.643586 0.755906 0.081007
155 2 0.713252 0.717133 0.199984
445 1 0.813448 0.602867 0.0835408
48 2 0.960316 0.615256 0.132362
80 2 0.85286 0.712157 0.0305333
283 1 0.921193 0.597663 0.0180393
386 1 0.951444 0.744103 0.0905818
427 1 0.894382 0.715758 0.193329
500 1 0.86808 0.688709 0.197598
83 2 0.146426 0.821898 0.138521
24 2 0.0117242 0.848735 0.0783999
238 1 0.145821 0.926603 0.0600429
242 1 0.162567 0.960074 0.156402