LAMMPS (20 Nov 2019)
#---------------------------------------------------------------------#
#---------- Simulation of Co1Ta2 in triclinic (P1) ----#
#-------------------- Writer:: Your Name ----------------------------#
#-------------------- Temperature: 300 Kelvin -----------------------#
#---------------------------------------------------------------------#

#---------------------Define initial value
variable              Temperature equal 300     # 300 K
variable              Pressure    equal 1.01325 # 1.01325 bar
variable              Timestep    equal 0.001   # 0.001 ps=1 fs::Ref[1]

#-----------------------------------------------------------#
#----------------------Initialization-----------------------#
#-----------------------------------------------------------#

#----------------------Define units, atom_style, dimension and boundary
echo                   both
units                  metal
dimension              3
boundary               p p p
atom_style             full

#----------------------Define neighbor Algorithm and neighbor list
neighbor               2.0 bin
neigh_modify           delay 0 every 1 check yes
read_data              Co2Ta(C15).data
  orthogonal box = (-0.0255 -0.0255 -0.0255) to (20.3745 20.3745 20.3745)
  1 by 1 by 1 MPI processor grid
  reading atoms ...
  766 atoms
  scanning bonds ...
  6 = max bonds/atom
  reading bonds ...
  1404 bonds
  6 = max # of 1-2 neighbors
  30 = max # of 1-3 neighbors
  180 = max # of 1-4 neighbors
  72 = max # of special neighbors
  special bonds CPU = 0.00274703 secs
  read_data CPU = 0.00530386 secs

#----------------------Define groups for simulation
group                  Co  type 1
550 atoms in group Co
group                  Ta  type 2
216 atoms in group Ta

#-----------------------------------------------------------------------------------#
#----------------------Setup interaction potentials between ions--------------------#
#-----------------------------------------------------------------------------------#

pair_style             meam
pair_coeff             * * library.meam Co Ta CoTa.meam Co Ta

#--------------------------------------------------------------------------------------#
#----Setting velocity, thermostep, thermo_style, timestep and other necessary setup----#
#--------------------------------------------------------------------------------------#
#---------------------Define thermo_style order to chose thermodynamic variable for save
thermo_style          custom   step  temp   press   ke  pe  etotal

#---------------------Define simulation time step
timestep              ${Timestep} # time_step=0.001ps=1fs :Ref[1]
timestep              0.001 

#-----------------------------------------#
#-------- Minimization protocols ---------#
#-----------------------------------------#
dump                   Min all atom 100 CoTa_min.atom
min_style              cg
thermo 1  # Print every step during minimization
minimize               1e-25 1e-25 10000 10000
WARNING: Using a manybody potential with bonds/angles/dihedrals and special_bond exclusions (src/pair.cpp:226)
WARNING: Bonds are defined but no bond style is set (src/force.cpp:205)
WARNING: Likewise 1-2 special neighbor interactions != 1.0 (src/force.cpp:207)
Neighbor list info ...
  update every 1 steps, delay 0 steps, check yes
  max neighbors/atom: 2000, page size: 100000
  master list distance cutoff = 7
  ghost atom cutoff = 7
  binsize = 3.5, bins = 6 6 6
  2 neighbor lists, perpetual/occasional/extra = 2 0 0
  (1) pair meam, perpetual
      attributes: full, newton on
      pair build: full/bin
      stencil: full/bin/3d
      bin: standard
  (2) pair meam, perpetual, half/full from (1)
      attributes: half, newton on
      pair build: halffull/newton
      stencil: none
      bin: none
Per MPI rank memory allocation (min/avg/max) = 19.94 | 19.94 | 19.94 Mbytes
Step Temp Press KinEng PotEng TotEng 
       0            0    789314.06            0    56901.017    56901.017 
       1            0    1502270.7            0    42284.501    42284.501 
       2            0    1687917.8            0    36421.472    36421.472 
       3            0      1698728            0    30908.619    30908.619 
       4            0    1703597.6            0    25785.498    25785.498 
       5            0    1697109.7            0    22447.828    22447.828 
       6            0    1702675.9            0    16624.574    16624.574 
       7            0    1659263.1            0    13220.632    13220.632 
       8            0    1590830.9            0    10185.101    10185.101 
       9            0    1460773.2            0    6958.2279    6958.2279 
      10            0    1323160.1            0    4415.5137    4415.5137 
      11            0    1159992.9            0    2153.8868    2153.8868 
      12            0    1027779.8            0    771.68924    771.68924 
      13            0    878522.43            0   -557.50865   -557.50865 
      14            0    756893.92            0   -1421.0741   -1421.0741 
      15            0    652778.96            0   -2046.2932   -2046.2932 
      16            0    572305.16            0   -2454.1719   -2454.1719 
      17            0    510092.37            0   -2724.0174   -2724.0174 
      18            0    458564.02            0   -2917.5354   -2917.5354 
      19            0    412754.77            0   -3065.6285   -3065.6285 
      20            0    374389.73            0   -3173.1885   -3173.1885 
      21            0    344980.68            0   -3248.9074   -3248.9074 
      22            0    319874.88            0   -3305.9914   -3305.9914 
      23            0    300111.67            0   -3349.3078   -3349.3078 
      24            0    293167.61            0   -3362.0148   -3362.0148 
      25            0    275216.16            0   -3396.0937   -3396.0937 
      26            0    260063.17            0   -3424.3642   -3424.3642 
      27            0    252606.14            0   -3435.6228   -3435.6228 
      28            0    245712.26            0   -3446.2424   -3446.2424 
      29            0    239024.35            0   -3456.8974   -3456.8974 
      30            0    227081.73            0   -3477.8939   -3477.8939 
      31            0     222371.2            0   -3486.5532   -3486.5532 
      32            0    216965.28            0   -3495.9206   -3495.9206 
      33            0    209668.89            0   -3508.5923   -3508.5923 
      34            0    201817.74            0   -3522.6408   -3522.6408 
      35            0    196780.83            0    -3532.912    -3532.912 
      36            0    193816.46            0   -3538.0522   -3538.0522 
      37            0    188821.51            0   -3544.3962   -3544.3962 
      38            0    184807.45            0    -3554.432    -3554.432 
      39            0    176982.64            0   -3566.1886   -3566.1886 
      40            0    169034.58            0   -3577.6617   -3577.6617 
      41            0    165033.58            0   -3581.7017   -3581.7017 
      42            0    157361.46            0   -3590.9016   -3590.9016 
      43            0       152696            0    -3597.909    -3597.909 
      44            0    150476.39            0   -3601.8182   -3601.8182 
      45            0    148887.21            0   -3604.9431   -3604.9431 
      46            0    145361.79            0      -3611.6      -3611.6 
      47            0    143568.72            0   -3619.1088   -3619.1088 
      48            0    141716.42            0   -3623.8706   -3623.8706 
      49            0    140590.26            0   -3628.8872   -3628.8872 
      50            0     139206.3            0   -3635.5963   -3635.5963 
      51            0    138722.59            0   -3639.7972   -3639.7972 
      52            0    139256.21            0   -3645.7203   -3645.7203 
      53            0       139473            0   -3650.2337   -3650.2337 
      54            0    136281.76            0    -3655.319    -3655.319 
      55            0    135711.96            0   -3656.2088   -3656.2088 
      56            0    135515.95            0   -3658.4612   -3658.4612 
      57            0    134223.48            0   -3662.5404   -3662.5404 
      58            0    132725.79            0   -3666.8775   -3666.8775 
      59            0    131825.01            0   -3670.3518   -3670.3518 
      60            0     131491.1            0   -3675.1444   -3675.1444 
      61            0    130314.33            0   -3678.6747   -3678.6747 
      62            0    129704.26            0   -3679.0362   -3679.0362 
      63            0    129714.86            0   -3679.3044   -3679.3044 
      64            0     129723.5            0   -3679.3404   -3679.3404 
      65            0    129321.05            0   -3679.5892   -3679.5892 
      66            0    128032.92            0   -3681.7825   -3681.7825 
      67            0    129164.05            0   -3683.9133   -3683.9133 
      68            0    126362.95            0   -3686.0638   -3686.0638 
      69            0    126128.05            0   -3686.1281   -3686.1281 
      70            0    126416.16            0   -3687.2441   -3687.2441 
      71            0    126293.95            0   -3687.3468   -3687.3468 
      72            0    126082.89            0   -3690.1446   -3690.1446 
      73            0    126335.29            0   -3690.4383   -3690.4383 
      74            0     126356.7            0   -3690.4632   -3690.4632 
      75            0    126389.79            0   -3690.4851   -3690.4851 
      76            0    126439.75            0   -3690.5136   -3690.5136 
      77            0     126466.2            0    -3690.523    -3690.523 
      78            0    126502.19            0   -3690.5276   -3690.5276 
      79            0    126510.64            0   -3690.5296   -3690.5296 
      80            0    125434.67            0   -3691.0283   -3691.0283 
      81            0    122491.54            0   -3691.1539   -3691.1539 
      82            0     122419.8            0   -3691.5286   -3691.5286 
      83            0    123243.73            0   -3693.1756   -3693.1756 
      84            0    124329.97            0     -3694.85     -3694.85 
      85            0    123785.44            0   -3694.8607   -3694.8607 
      86            0    121766.98            0   -3696.7098   -3696.7098 
      87            0    120864.21            0   -3696.7133   -3696.7133 
      88            0    121312.23            0   -3698.8905   -3698.8905 
      89            0    120840.26            0   -3699.0834   -3699.0834 
      90            0    120764.48            0   -3699.1386   -3699.1386 
      91            0    119981.12            0   -3699.8856   -3699.8856 
      92            0     122063.8            0   -3701.0344   -3701.0344 
      93            0    120529.98            0   -3702.0085   -3702.0085 
      94            0    119919.93            0    -3703.706    -3703.706 
      95            0    119507.93            0   -3703.8856   -3703.8856 
      96            0    119239.74            0   -3704.5042   -3704.5042 
      97            0    119040.35            0    -3705.581    -3705.581 
      98            0    118914.51            0   -3707.2412   -3707.2412 
      99            0    117972.19            0   -3708.9404   -3708.9404 
     100            0    117766.78            0   -3708.9901   -3708.9901 
     101            0     116424.4            0   -3709.3161   -3709.3161 
     102            0    114855.88            0   -3710.5731   -3710.5731 
     103            0    114652.32            0   -3711.8741   -3711.8741 
     104            0    113638.72            0   -3713.6639   -3713.6639 
     105            0    113165.29            0   -3714.2216   -3714.2216 
     106            0    113751.59            0   -3716.0267   -3716.0267 
     107            0    113847.37            0   -3716.1167   -3716.1167 
     108            0    112912.08            0   -3717.1803   -3717.1803 
     109            0    111507.86            0   -3717.3747   -3717.3747 
     110            0    111752.16            0   -3718.2098   -3718.2098 
     111            0    111812.47            0   -3719.6949   -3719.6949 
     112            0    111382.46            0   -3719.9353   -3719.9353 
     113            0    112030.79            0   -3722.5899   -3722.5899 
     114            0    111433.48            0   -3722.9896   -3722.9896 
     115            0    111048.06            0   -3723.0331   -3723.0331 
     116            0    110822.35            0   -3724.2676   -3724.2676 
     117            0       111139            0   -3724.4529   -3724.4529 
     118            0    111292.72            0   -3726.8156   -3726.8156 
     119            0    111178.01            0   -3727.3563   -3727.3563 
     120            0    110593.14            0   -3727.8492   -3727.8492 
     121            0    110485.04            0   -3727.9253   -3727.9253 
     122            0    110156.18            0   -3730.1833   -3730.1833 
     123            0    110079.85            0   -3731.1594   -3731.1594 
     124            0     109694.4            0   -3731.5873   -3731.5873 
     125            0    109834.41            0   -3731.6508   -3731.6508 
     126            0    109343.66            0   -3732.4605   -3732.4605 
     127            0    108825.38            0   -3733.2107   -3733.2107 
     128            0    107768.26            0   -3733.6004   -3733.6004 
     129            0    106929.48            0   -3732.6456   -3732.6456 
Loop time of 5.12713 on 1 procs for 129 steps with 766 atoms

99.9% CPU use with 1 MPI tasks x no OpenMP threads

Minimization stats:
  Stopping criterion = linesearch alpha is zero
  Energy initial, next-to-last, final = 
         56901.0173919     -3733.60041624     -3732.64557013
  Force two-norm initial, final = 20994 33.5841
  Force max component initial, final = 2442.18 9.56279
  Final line search alpha, max atom move = 2.44058e-11 2.33388e-10
  Iterations, force evaluations = 129 435

MPI task timing breakdown:
Section |  min time  |  avg time  |  max time  |%varavg| %total
---------------------------------------------------------------
Pair    | 5.0767     | 5.0767     | 5.0767     |   0.0 | 99.02
Bond    | 0.00020158 | 0.00020158 | 0.00020158 |   0.0 |  0.00
Neigh   | 0.027133   | 0.027133   | 0.027133   |   0.0 |  0.53
Comm    | 0.0055238  | 0.0055238  | 0.0055238  |   0.0 |  0.11
Output  | 0.0069121  | 0.0069121  | 0.0069121  |   0.0 |  0.13
Modify  | 0          | 0          | 0          |   0.0 |  0.00
Other   |            | 0.0107     |            |       |  0.21

Nlocal:    766 ave 766 max 766 min
Histogram: 1 0 0 0 0 0 0 0 0 0
Nghost:    2965 ave 2965 max 2965 min
Histogram: 1 0 0 0 0 0 0 0 0 0
Neighs:    36442 ave 36442 max 36442 min
Histogram: 1 0 0 0 0 0 0 0 0 0
FullNghs:  72884 ave 72884 max 72884 min
Histogram: 1 0 0 0 0 0 0 0 0 0

Total # of neighbors = 72884
Ave neighs/atom = 95.1488
Ave special neighs/atom = 34.5666
Neighbor list builds = 5
Dangerous builds = 0
undump                 Min
reset_timestep	       0

#-------------------------------------------------------------#
#---- Dynamic stage: Calculation enthalpy in NVT ensemble ----#
#-------------------------------------------------------------#

#---------------------Set canonical ensemble(NVT) in T=${Temperature}
fix                   NVT_Equilibrium_Final all nvt temp ${Temperature} ${Temperature} 0.1
fix                   NVT_Equilibrium_Final all nvt temp 300 ${Temperature} 0.1
fix                   NVT_Equilibrium_Final all nvt temp 300 300 0.1

#---------------------Save the trajectories with dump command in Equilibrium stage
dump                  Equilibrium.NVT.Final all atom 100 Equilibrium.NVT.Final.atom

#-----------------------------------------------------#
#-------------- Calculation enthalpy -----------------#
#-----------------------------------------------------#

#---------------------Calculation potentials energy per atoms
compute               Potentials_energy_per_atoms_vector all pe/atom
variable              PD atom c_Potentials_energy_per_atoms_vector            # PD= Potentials_energy_per_atoms_vector for dump
compute               Potentials_energy all reduce sum c_Potentials_energy_per_atoms_vector
variable              N equal "count(all)"
variable              N1 equal count(Co)
variable              N2 equal count(Ta)
variable              n equal 1        # Co_nTa_m
variable              m equal 2
compute               ECo Co pe/atom
compute               ETa Ta pe/atom
compute               E1 Co reduce sum c_ECo
compute               E2 Ta reduce sum c_ETa
variable              Potentials_energy_per_atoms_scaller equal "c_Potentials_energy/v_N"
variable              Totenergy equal etotal                               #Kinetic+Potentials

#---------------------Calculation Temperature
compute               TEMPERATURE all   temp
variable              TEMPERATURE equal "c_TEMPERATURE"

#---------------------Calculation formation Energy and heat of formation
variable              lengtha equal "lx/3"
variable              lengthc equal "lz/3"
variable              EcCo equal -3.7  	 #Cohesive energy of Co
variable              EcTa equal -8.1           #Cohesive energy of Ta
variable              Etot equal v_Totenergy/v_N
variable              formation_energy equal -(v_Etot-v_n*v_EcCo-v_m*v_EcTa)/(22*(v_n+v_m))
variable              heat_formation equal (v_Etot*v_N-v_N1*c_E1-v_N2*c_E2)/(v_N)
thermo_style          custom step temp press etotal v_Etot c_E1 c_E2 v_formation_energy v_heat_formation v_lengtha v_lengthc
thermo 1  # Print every step during dynamics

#---------------------Dynamic run
run                   10000 # 1 ps
WARNING: Using a manybody potential with bonds/angles/dihedrals and special_bond exclusions (src/pair.cpp:226)
WARNING: Bonds are defined but no bond style is set (src/force.cpp:205)
WARNING: Likewise 1-2 special neighbor interactions != 1.0 (src/force.cpp:207)
Per MPI rank memory allocation (min/avg/max) = 18.82 | 18.82 | 18.82 Mbytes
Step Temp Press TotEng v_Etot c_E1 c_E2 v_formation_energy v_heat_formation v_lengtha v_lengthc 
       0            0    107363.26   -3728.3672     -4.86732   -1830.1562    -1898.211  -0.22776788    1844.4792          6.8          6.8 
       1   0.94787895    107419.97   -3728.3685   -4.8673218   -1830.1931   -1898.2691  -0.22776785    1844.5222          6.8          6.8 
       2    3.5650471    107571.51   -3728.3727   -4.8673273   -1830.3018   -1898.4234  -0.22776777    1844.6437          6.8          6.8 
       3    7.2267116     107773.5    -3728.378   -4.8673342   -1830.4659   -1898.6267  -0.22776766    1844.8188          6.8          6.8 
       4    11.114822    107984.31   -3728.3828   -4.8673405   -1830.6475   -1898.8345  -0.22776757    1845.0078          6.8          6.8 
       5    14.472461    108123.47   -3728.3843   -4.8673425   -1830.8388   -1898.9766  -0.22776754    1845.1853          6.8          6.8 
       6    16.899325    108143.39   -3728.3818   -4.8673392   -1831.0461   -1899.0068  -0.22776759    1845.3426          6.8          6.8 
       7    18.356269    108108.97   -3728.3788   -4.8673352   -1831.2386   -1898.9553  -0.22776765    1845.4663          6.8          6.8 
       8    19.044326    108053.57   -3728.3732   -4.8673279   -1831.3891   -1898.8672  -0.22776776    1845.5496          6.8          6.8 
       9    19.385946    108009.12   -3728.3672   -4.8673201   -1831.4822   -1898.8019  -0.22776788     1845.598          6.8          6.8 
      10    19.751213    108024.64   -3728.3631   -4.8673148   -1831.5215   -1898.7947  -0.22776796    1845.6242          6.8          6.8 
      11    20.322325    108107.43   -3728.3575   -4.8673075   -1831.5218   -1898.8452  -0.22776807    1845.6387          6.8          6.8 
      12    21.298932    108223.24   -3728.3493   -4.8672967   -1831.5321   -1898.9232  -0.22776823    1845.6681          6.8          6.8 
      13    22.999092    108367.98    -3728.345   -4.8672911   -1831.5903   -1899.0289  -0.22776832    1845.7397          6.8          6.8 
      14    25.454089    108555.46   -3728.3411    -4.867286   -1831.6818   -1899.1763  -0.22776839    1845.8469          6.8          6.8 
      15    28.399239    108789.98   -3728.3371   -4.8672808   -1831.7812   -1899.3641  -0.22776847    1845.9713          6.8          6.8 
      16    31.389709    109057.25   -3728.3311    -4.867273   -1831.8675   -1899.5675  -0.22776859    1846.0906          6.8          6.8 
      17    34.207971    109357.55   -3728.3211     -4.86726   -1831.9195   -1899.7843  -0.22776879     1846.189          6.8          6.8 
      18    36.854153    109587.28   -3728.3124   -4.8672486   -1831.9662   -1899.9905  -0.22776896    1846.2807          6.8          6.8 
      19    39.134024    109594.01   -3728.3016   -4.8672345   -1832.0563   -1900.1151  -0.22776917    1846.3805          6.8          6.8 
      20    40.963788    109273.54   -3728.2866   -4.8672149   -1832.2045   -1900.1328  -0.22776947     1846.492          6.8          6.8 
      21    42.817227    108640.43   -3728.2726   -4.8671966   -1832.3527   -1900.1538  -0.22776975    1846.6044          6.8          6.8 
      22    44.810089     108291.3   -3728.2649   -4.8671865   -1832.4865   -1900.2093   -0.2277699    1846.7161          6.8          6.8 
      23    46.521547    108277.95   -3728.2393   -4.8671531   -1832.6395      -1900.2  -0.22777041    1846.8234          6.8          6.8 
      24    49.532455    108439.88   -3728.0867    -4.866954   -1832.7703   -1900.2144  -0.22777342    1846.9215          6.8          6.8 
      25    57.241342    108356.61   -3727.6627   -4.8664004    -1833.014   -1900.3089  -0.22778181    1847.1237          6.8          6.8 
      26    60.140495    108373.45   -3727.6352   -4.8663644   -1833.2292   -1900.3529  -0.22778236    1847.2906          6.8          6.8 
      27    63.046819    108477.04    -3727.554   -4.8662585   -1833.3161   -1900.4722  -0.22778396    1847.3868          6.8          6.8 
      28    66.081917    108067.61   -3727.5833   -4.8662967   -1833.6106   -1900.5071  -0.22778338    1847.6081          6.8          6.8 
      29    68.923238    107871.06   -3727.5821   -4.8662952    -1833.755   -1900.6425  -0.22778341      1847.75          6.8          6.8 
      30    70.674274    107537.99   -3727.4941   -4.8661802   -1833.9046   -1900.5781  -0.22778515    1847.8393          6.8          6.8 
      31    73.263539    107470.08   -3727.5354   -4.8662341   -1834.0709   -1900.7091  -0.22778433    1847.9956          6.8          6.8 
      32    74.415579    107183.38    -3727.375   -4.8660248   -1834.2171   -1900.5165   -0.2277875    1848.0464          6.8          6.8 
      33    77.942464    107268.37   -3727.4467   -4.8661184   -1834.3971   -1900.7568  -0.22778609    1848.2434          6.8          6.8 
      34    79.628224    106828.11   -3727.0278   -4.8655715   -1834.4464   -1900.4554  -0.22779437    1848.1943          6.8          6.8 
      35    82.058384    106847.46   -3727.0724   -4.8656298   -1834.5841   -1900.6026  -0.22779349    1848.3346          6.8          6.8 
      36    87.226557    106765.18   -3726.8989   -4.8654033   -1834.7845   -1900.7397  -0.22779692    1848.5174          6.8          6.8 
      37    91.372537    106561.28   -3726.4828   -4.8648601   -1834.8684   -1900.6497  -0.22780515    1848.5528          6.8          6.8 
      38    94.997858    106721.23   -3726.5273   -4.8649181   -1835.0429   -1900.8782  -0.22780427    1848.7425          6.8          6.8 
      39    98.610705    107016.23   -3726.1997   -4.8644904   -1834.9134   -1901.0373  -0.22781075    1848.6948          6.8          6.8 
      40    100.94776    106957.48    -3726.284   -4.8646005   -1835.1111    -1901.155  -0.22780908    1848.8698          6.8          6.8 
      41    103.74456     106869.4   -3726.2264   -4.8645253   -1835.2954   -1901.1897  -0.22781022     1849.012          6.8          6.8 
      42    106.01086     106662.4   -3726.2341   -4.8645354    -1835.493   -1901.2239  -0.22781007    1849.1636          6.8          6.8 
      43    107.82396    106595.65   -3726.2189   -4.8645155   -1835.5826   -1901.2983  -0.22781037    1849.2489          6.8          6.8 
      44    110.93124    106562.09   -3726.1414   -4.8644144   -1835.7764   -1901.3343   -0.2278119    1849.3983          6.8          6.8 
      45    114.72192    106631.12   -3725.9866   -4.8642122   -1835.9424   -1901.3884  -0.22781497    1849.5329          6.8          6.8 
      46    117.79347    106492.78   -3725.8839   -4.8640782   -1836.0123   -1901.5195    -0.227817    1849.6202          6.8          6.8 
      47    120.87349    106515.32   -3725.8185   -4.8639929   -1836.1756   -1901.5954  -0.22781829     1849.759          6.8          6.8 
      48    124.11887     106503.3   -3725.6469   -4.8637689    -1836.373   -1901.5473  -0.22782168    1849.8874          6.8          6.8 
      49     126.8505    106626.37   -3725.8064    -4.863977   -1836.6004   -1901.7495  -0.22781853    1850.1075          6.8          6.8 
      50    128.42766    106483.57   -3725.5659    -4.863663   -1836.6694    -1901.596  -0.22782329     1850.114          6.8          6.8 
      51      131.744    106539.79   -3725.3548   -4.8633875   -1836.7048   -1901.6774  -0.22782746    1850.1627          6.8          6.8 
      52    134.04062    106529.68   -3725.6251   -4.8637404    -1836.968   -1901.9116  -0.22782212    1850.4173          6.8          6.8 
      53    137.16709    106451.16   -3725.3408   -4.8633692   -1836.9904    -1901.914  -0.22782774    1850.4345          6.8          6.8 
      54    140.82312    106365.36    -3725.423   -4.8634765   -1837.1964   -1902.1518  -0.22782611    1850.6493          6.8          6.8 
      55    145.29885    106312.98   -3725.3934   -4.8634378   -1837.4703   -1902.2908   -0.2278267    1850.8852          6.8          6.8 
      56    149.01746    106210.29   -3725.1974    -4.863182     -1837.51   -1902.4229  -0.22783058    1850.9512          6.8          6.8 
      57    153.38369    105985.51   -3724.8209   -4.8626905   -1837.6089   -1902.3792  -0.22783802    1851.0104          6.8          6.8 
      58    159.10927     105995.4   -3724.8209   -4.8626905   -1837.8918   -1902.6625  -0.22783802    1851.2934          6.8          6.8 
      59    164.84009    106163.51   -3724.9401   -4.8628461   -1838.1033   -1903.1368  -0.22783566    1851.5789          6.8          6.8 
      60    166.03596    106049.84   -3724.8499   -4.8627283   -1838.0364   -1903.2318  -0.22783745    1851.5577          6.8          6.8 
      61    169.66309    105935.72   -3724.8247   -4.8626955   -1838.1725   -1903.4292  -0.22783795    1851.7112          6.8          6.8 
      62    174.24713    106017.47   -3724.8012   -4.8626647   -1838.3183   -1903.7131  -0.22783841     1851.896          6.8          6.8 
      63    178.93088    106085.12   -3724.7607   -4.8626118   -1838.5081   -1903.9459  -0.22783921     1852.098          6.8          6.8 
      64    185.43994    106022.26   -3724.7315   -4.8625737   -1838.7414   -1904.3272  -0.22783979     1852.373          6.8          6.8 
      65    190.08477    105968.43   -3724.6948   -4.8625259   -1838.8814   -1904.6098  -0.22784052    1852.5532          6.8          6.8 
      66    192.97259    105811.55   -3724.6353   -4.8624482   -1839.1791   -1904.5381  -0.22784169    1852.7469          6.8          6.8 
      67     195.4851    105639.37   -3724.5524     -4.86234   -1839.4434   -1904.4393  -0.22784333    1852.9089          6.8          6.8 
      68    199.03742    105097.06   -3724.4099   -4.8621539   -1839.7132   -1904.3783  -0.22784615    1853.0856          6.8          6.8 
      69    202.77532    104313.58   -3724.1432   -4.8618057   -1840.0388   -1904.1556  -0.22785143    1853.2569          6.8          6.8 
      70    211.34475    104134.08   -3723.5324   -4.8610084   -1840.2703   -1904.1607  -0.22786351    1853.4254          6.8          6.8 
      71    215.88282     103829.9   -3723.2102   -4.8605878   -1840.4478   -1904.1098  -0.22786988    1853.5389          6.8          6.8 
      72    221.22072    103767.89   -3723.2813   -4.8606806   -1840.7367   -1904.4198  -0.22786848    1853.8336          6.8          6.8 
      73    227.40428    103578.92   -3723.0085   -4.8603244   -1841.2354   -1904.2597  -0.22787387    1854.1469          6.8          6.8 
      74    240.33057    103045.39   -3721.4109   -4.8582388   -1841.3337   -1903.8421  -0.22790547    1854.1018          6.8          6.8 
      75    249.99585    102519.38   -3720.5606   -4.8571287   -1841.3557   -1903.9255  -0.22792229    1854.1423          6.8          6.8 
      76    256.46041    102070.99   -3719.8446    -4.856194   -1841.3895   -1903.8149  -0.22793645    1854.1363          6.8          6.8 
      77    266.52356    101569.02   -3718.3715   -4.8542708   -1841.2069   -1903.5195  -0.22796559    1853.9238          6.8          6.8 
      78    271.79544    101638.66    -3717.908   -4.8536658   -1841.0377   -1903.7466  -0.22797476    1853.8669          6.8          6.8 
      79    294.34207    101863.27   -3715.1679   -4.8500886   -1840.6873   -1903.5863  -0.22802896    1853.5737          6.8          6.8 
      80    298.07659    101410.96   -3714.1797   -4.8487985   -1840.5665   -1903.0882  -0.22804851    1853.3478          6.8          6.8 
      81    306.22263    101568.04   -3713.7678   -4.8482608   -1840.9029   -1903.1454  -0.22805665    1853.6061          6.8          6.8 
      82    322.70293    101465.23   -3712.3235   -4.8463754   -1841.3425   -1902.8912  -0.22808522    1853.8519          6.8          6.8 
      83     328.7382    101914.36    -3712.164   -4.8461671   -1841.3206   -1903.3504  -0.22808838    1853.9658          6.8          6.8 
      84     332.1149    101654.52   -3710.7783   -4.8443581   -1840.6457   -1902.9735  -0.22811579    1853.3768          6.8          6.8 
      85    340.59217    101365.16   -3709.1999   -4.8422975   -1839.9878   -1902.8912  -0.22814701    1852.8833          6.8          6.8 
      86    343.16937    101173.08   -3708.6044   -4.8415201   -1840.0284     -1902.51  -0.22815879    1852.8057          6.8          6.8 
      87    348.66509    101581.98   -3708.4546   -4.8413245   -1840.0969   -1902.8351  -0.22816175    1852.9468          6.8          6.8 
      88    350.34484    101597.35   -3707.9884   -4.8407159   -1840.0924   -1902.5395  -0.22817097    1852.8608          6.8          6.8 
      89    353.01446    101868.69   -3707.4295   -4.8399863   -1839.7102   -1902.6268  -0.22818203    1852.6117          6.8          6.8 
      90    355.00622     101927.5   -3706.9502   -4.8393606   -1839.2435   -1902.8112  -0.22819151    1852.3292          6.8          6.8 
      91    357.15723    101923.19   -3706.4274    -4.838678    -1839.271   -1902.4735  -0.22820185    1852.2544          6.8          6.8 
      92     359.2176    102081.81   -3706.3303   -4.8385514   -1839.2553   -1902.5959  -0.22820377    1852.2778          6.8          6.8 
      93    363.97306    102103.06   -3705.9591   -4.8380668   -1839.5168   -1902.4334  -0.22821111    1852.4203          6.8          6.8 
      94    366.30469    101878.05   -3705.1078   -4.8369554   -1839.3627   -1901.9668  -0.22822795    1852.1791          6.8          6.8 
      95    371.77798    102628.67   -3705.0776   -4.8369159   -1839.5297   -1902.3108  -0.22822855    1852.3961          6.8          6.8 
      96    374.54154    102286.35   -3704.8771   -4.8366541   -1839.6811   -1902.2321  -0.22823251    1852.4829          6.8          6.8 
      97     382.8716    102882.15   -3703.5939    -4.834979   -1839.1558    -1902.298  -0.22825789    1852.1259          6.8          6.8 
      98    400.57648    102697.19   -3700.6205   -4.8310973   -1838.8777   -1901.3534  -0.22831671    1851.6638          6.8          6.8 
      99    403.91876    102339.85    -3700.699   -4.8311998   -1839.2573   -1901.3828  -0.22831516    1851.9445          6.8          6.8 
     100     409.0216     102846.2   -3700.0354   -4.8303334   -1839.1077   -1901.3734  -0.22832828    1851.8353          6.8          6.8 
     101    412.85541    103121.84   -3699.7142   -4.8299141   -1839.1821   -1901.3569  -0.22833463    1851.8845          6.8          6.8 
     102    421.41693    103122.34   -3699.2595   -4.8293205   -1839.4056   -1901.5253  -0.22834363    1852.0931          6.8          6.8 
     103    426.31477    103579.23   -3699.0508    -4.829048   -1839.3234   -1901.8831  -0.22834776    1852.1352          6.8          6.8 
     104    430.37896    104071.86   -3698.6143   -4.8284782   -1839.1972   -1901.9747  -0.22835639     1852.071          6.8          6.8 
     105      436.979    104596.91   -3698.1248   -4.8278391   -1839.0889   -1902.2461  -0.22836607    1852.0704          6.8          6.8 
     106    439.12851    104482.58   -3697.3607   -4.8268416   -1838.8901   -1901.8934  -0.22838119    1851.8292          6.8          6.8 
     107    441.64948    104823.44   -3697.2836   -4.8267409   -1838.7436    -1902.212  -0.22838271     1851.814          6.8          6.8 
     108    444.06825    104614.84   -3696.6812   -4.8259545   -1838.4924      -1902.1  -0.22839463    1851.6028          6.8          6.8 
     109    450.67304    104738.85   -3696.7192   -4.8260042   -1838.7215   -1902.5621  -0.22839388    1851.8975          6.8          6.8 
     110    456.91721    104462.99   -3696.0814   -4.8251715   -1838.9412    -1902.322  -0.22840649    1851.9884          6.8          6.8 
     111    456.98603    104190.38   -3695.9696   -4.8250256   -1838.9694   -1902.1888   -0.2284087    1851.9713          6.8          6.8 
     112    464.64122    103685.38   -3694.8844   -4.8236089   -1838.9559   -1901.8742  -0.22843017    1851.8742          6.8          6.8 
     113    481.30124    104098.59   -3693.8381    -4.822243   -1839.1294   -1902.3017  -0.22845086    1852.1208          6.8          6.8 
     114     482.7145    103377.15   -3692.7906   -4.8208754   -1838.7687   -1901.7546  -0.22847158    1851.7089          6.8          6.8 
     115    484.21652    102413.59   -3692.0807   -4.8199486   -1838.2943   -1901.6676  -0.22848563    1851.3446          6.8          6.8 
     116    499.92631    102322.78    -3690.935    -4.818453   -1838.4166   -1901.9532  -0.22850829    1851.5144          6.8          6.8 
     117    540.89836    102374.54   -3687.1724   -4.8135409   -1838.5792   -1902.0793  -0.22858271    1851.6717          6.8          6.8 
     118    546.36857    102729.61   -3686.5624   -4.8127446    -1838.259   -1902.3305  -0.22859478    1851.5134          6.8          6.8 
     119    550.29466    102535.02   -3686.5075    -4.812673   -1838.5558   -1902.3671  -0.22859586    1851.7369          6.8          6.8 
     120     549.0472    101993.21   -3686.7038   -4.8129292   -1838.4468    -1902.549  -0.22859198    1851.7097          6.8          6.8 
     121     551.9307    101886.27    -3686.432   -4.8125744   -1838.2338   -1902.7753  -0.22859736    1851.6209          6.8          6.8 
     122    556.30631    102270.18    -3685.948   -4.8119426   -1837.7753   -1903.1825  -0.22860693    1851.4072          6.8          6.8 
     123     557.5285    101501.07   -3684.5452   -4.8101113   -1837.0895   -1902.5864  -0.22863468    1850.7485          6.8          6.8 
     124    558.46144    101148.14   -3684.6078    -4.810193   -1837.0302   -1902.8006  -0.22863344    1850.7662          6.8          6.8 
     125    565.47133    100893.52   -3680.9358   -4.8053992   -1835.0763   -1901.7756  -0.22870607     1849.079          6.8          6.8 
     126    566.54478    101332.03   -3680.8504   -4.8052877   -1835.1056    -1901.767  -0.22870776    1849.0978          6.8          6.8 
     127    564.34183    101674.16   -3680.9874   -4.8054666   -1834.9961   -1901.7957  -0.22870505    1849.0271          6.8          6.8 
     128       563.51    102263.09   -3681.2166   -4.8057658   -1834.7193   -1902.2194  -0.22870052    1848.9475          6.8          6.8 
     129    567.15694    102666.74   -3681.2174   -4.8057668   -1834.6029   -1902.6972   -0.2287005    1848.9987          6.8          6.8 
     130    575.57948    103248.19   -3680.6892   -4.8050773   -1834.6109    -1902.994  -0.22871095    1849.0888          6.8          6.8 
     131    577.05284    103392.62   -3680.7976   -4.8052188   -1834.6423   -1903.2166  -0.22870881     1849.174          6.8          6.8 
     132    578.41279    103568.08   -3680.9818   -4.8054592   -1834.6527   -1903.5249  -0.22870516    1849.2681          6.8          6.8 
     133     581.0609    103903.17   -3681.1727   -4.8057085   -1834.7807   -1903.8496  -0.22870139    1849.4513          6.8          6.8 
     134    582.66711    104163.85   -3681.2504   -4.8058099   -1834.7711   -1904.0957  -0.22869985    1849.5138          6.8          6.8 
     135    584.51168    104286.85    -3681.497   -4.8061319   -1834.9073   -1904.3886  -0.22869497    1849.6938          6.8          6.8 
     136    585.14648     104153.4   -3681.6935   -4.8063883    -1835.127   -1904.4281  -0.22869109    1849.8624          6.8          6.8 
     137    583.25127    103732.25   -3681.8768   -4.8066277   -1835.2645   -1904.2865  -0.22868746     1849.921          6.8          6.8 
     138    584.33811    103562.87   -3682.1435   -4.8069759   -1835.4782    -1904.447  -0.22868218    1850.1194          6.8          6.8 
     139    586.78546    103698.81   -3682.3896   -4.8072971   -1835.5636   -1904.8497  -0.22867732    1850.2939          6.8          6.8 
     140    586.24489    103600.08   -3682.4576   -4.8073859   -1835.5893   -1904.8386  -0.22867597    1850.3091          6.8          6.8 
     141    586.63617    103456.57   -3682.7313   -4.8077432   -1835.7391   -1905.0011  -0.22867056    1850.4622          6.8          6.8 
     142    586.77457    103517.85   -3682.7746   -4.8077998   -1835.6599   -1905.1374   -0.2286697    1850.4437          6.8          6.8 
     143    586.01036     103489.1    -3683.043   -4.8081502   -1835.6843   -1905.3058  -0.22866439    1850.5083          6.8          6.8 
     144    585.91559    103749.44    -3683.155   -4.8082964   -1835.5723   -1905.5204  -0.22866218    1850.4883          6.8          6.8 
     145    590.21586    104114.74   -3683.4168   -4.8086381   -1835.6778    -1906.102    -0.228657    1850.7277          6.8          6.8 
     146    591.04645    104554.64   -3683.2801   -4.8084596   -1835.5428   -1906.1824   -0.2286597    1850.6536          6.8          6.8 
     147     591.0004    104950.59   -3683.4885   -4.8087317    -1835.554    -1906.375  -0.22865558    1850.7157          6.8          6.8 
     148    593.03627    105050.36   -3683.7621   -4.8090889   -1835.7519    -1906.652  -0.22865017    1850.9355          6.8          6.8 
     149    593.90421       104958   -3683.5517   -4.8088142    -1835.769   -1906.5102  -0.22865433    1850.9081          6.8          6.8 
     150    592.98099    104808.88   -3683.7128   -4.8090245   -1835.8797   -1906.4695  -0.22865114    1850.9759          6.8          6.8 
     151    593.29019    104798.02   -3683.9493   -4.8093333   -1835.9829   -1906.6333  -0.22864647    1851.0959          6.8          6.8 
     152    595.34019    104812.63   -3684.1631   -4.8096124   -1836.1606   -1906.8721  -0.22864224    1851.2906          6.8          6.8 
     153    598.80985    104862.58   -3684.4085   -4.8099328   -1836.3619   -1907.2593  -0.22863738    1851.5439          6.8          6.8 
     154    601.67911    104728.53   -3684.2967   -4.8097868   -1836.4079   -1907.3852  -0.22863959    1851.6126          6.8          6.8 
     155    602.58432    104459.33   -3684.0025   -4.8094028   -1836.3196   -1907.2689  -0.22864541    1851.5168          6.8          6.8 
     156    613.51194    104760.92   -3683.9665   -4.8093557   -1836.7278   -1907.9052  -0.22864613    1851.9894          6.8          6.8 
     157    631.65761    104909.44    -3682.224   -4.8070809   -1836.6582   -1908.0266  -0.22868059    1851.9759          6.8          6.8 
     158    634.35012    104214.92   -3681.8356   -4.8065739   -1836.7689   -1907.7937  -0.22868827    1851.9902          6.8          6.8 
     159    636.62962    104042.34   -3682.1364   -4.8069666   -1837.0428   -1908.0461  -0.22868232    1852.2576          6.8          6.8 
     160      641.296    103603.67   -3681.5789   -4.8062387   -1837.0257   -1907.9671  -0.22869335    1852.2238          6.8          6.8 
     161    643.25194    103111.76   -3681.7803   -4.8065017   -1836.9464   -1908.4413  -0.22868937    1852.3003          6.8          6.8 
     162    646.31521    101817.72   -3681.1747   -4.8057111   -1836.8499   -1908.2351  -0.22870135    1852.1737          6.8          6.8 
     163    649.39466    101466.82   -3681.6517   -4.8063338   -1837.1574   -1908.7091  -0.22869191    1852.5275          6.8          6.8 
     164    646.95509    100683.63   -3681.4814   -4.8061115   -1837.1094   -1908.3455  -0.22869528    1852.3907          6.8          6.8 
     165    652.22236    99885.679   -3681.7218   -4.8064254   -1837.4855   -1908.7306  -0.22869052    1852.7691          6.8          6.8 
     166    664.29507     98809.48   -3680.9408   -4.8054057   -1837.8206   -1908.8083  -0.22870597    1853.0326          6.8          6.8 
     167    670.39551    98384.766   -3680.6406   -4.8050139   -1837.8882   -1909.0438  -0.22871191     1853.148          6.8          6.8 
     168    671.07771    97728.895   -3679.5716   -4.8036183   -1837.3678   -1908.5626  -0.22873306      1852.64          6.8          6.8 
     169    672.21362    97599.351   -3679.7893   -4.8039025   -1837.3009   -1908.9595  -0.22872875    1852.7036          6.8          6.8 
     170    677.87749    97619.208    -3680.431   -4.8047402   -1837.7656   -1909.6966  -0.22871606    1853.2443          6.8          6.8 
     171    688.28853    97270.627     -3679.15   -4.8030678   -1837.7373   -1909.4734   -0.2287414    1853.1627          6.8          6.8 
     172    695.02002    96905.949   -3679.2693   -4.8032236   -1838.2841   -1909.7115  -0.22873904    1853.6223          6.8          6.8 
     173    699.26169    96378.223   -3678.7759   -4.8025795   -1838.1347    -1909.787   -0.2287488     1853.537          6.8          6.8 
     174     706.5927    96374.852     -3679.21   -4.8031462     -1838.51   -1910.5707  -0.22874021    1854.0268          6.8          6.8 
     175    712.59454    96243.794   -3678.5427    -4.802275   -1838.4069   -1910.5999  -0.22875341     1853.962          6.8          6.8 
     176    716.36471     96570.97   -3679.0807   -4.8029774   -1838.6488   -1911.2689  -0.22874277    1854.3236          6.8          6.8 
     177    719.48686    96763.786   -3679.1767   -4.8031028   -1838.6689   -1911.6536  -0.22874087    1854.4463          6.8          6.8 
     178    719.13757    96322.403   -3679.3577    -4.803339    -1838.834   -1911.6348  -0.22873729    1854.5594          6.8          6.8 
     179    720.32705    96447.157   -3679.5744   -4.8036219   -1839.0475   -1911.7557    -0.228733    1854.7465          6.8          6.8 
     180    722.64627    96240.218   -3679.6959   -4.8037806   -1839.1988   -1911.9553   -0.2287306    1854.9112          6.8          6.8 
     181    727.82591    96303.482    -3679.538   -4.8035745   -1839.1112   -1912.3972  -0.22873372    1854.9731          6.8          6.8 
     182    729.58986        96214   -3679.8964   -4.8040422   -1839.1749   -1912.8662  -0.22872663    1855.1507          6.8          6.8 
     183    737.59149    95970.698   -3680.0897   -4.8042946   -1839.4311   -1913.5945  -0.22872281    1855.5398          6.8          6.8 
     184    738.36509    95002.058   -3680.2835   -4.8045477   -1839.4873   -1913.8088  -0.22871897    1855.6402          6.8          6.8 
     185    735.99581    93966.007   -3681.0033   -4.8054873    -1839.755   -1914.0265  -0.22870474    1855.8929          6.8          6.8 
     186    738.12329    93444.567     -3680.81    -4.805235   -1839.6635   -1914.1351  -0.22870856    1855.8581          6.8          6.8 
     187    746.29173    93735.621    -3679.353   -4.8033329   -1839.2499   -1913.8994  -0.22873738    1855.4966          6.8          6.8 
     188    741.68112    93659.039   -3678.9536   -4.8028114   -1838.8847   -1913.4093  -0.22874528    1855.0966          6.8          6.8 
     189    744.54683    95919.259   -3679.2687   -4.8032229   -1838.9095    -1913.983  -0.22873905    1855.2758          6.8          6.8 
     190    740.34146    96346.922   -3679.7535   -4.8038557   -1839.0602   -1913.9012  -0.22872946    1855.3603          6.8          6.8 
     191    736.59442      96105.5   -3679.9636     -4.80413   -1839.0675   -1913.7335   -0.2287253     1855.318          6.8          6.8 
     192    735.89975    95899.975   -3680.0319   -4.8042191   -1838.9459   -1913.8547  -0.22872395    1855.2648          6.8          6.8 
     193    739.31761    96216.399   -3679.5631   -4.8036072   -1838.8134   -1913.8564  -0.22873322    1855.1708          6.8          6.8 
     194    740.67362     95749.41   -3679.4388   -4.8034449   -1838.5649   -1914.1147  -0.22873568    1855.0653          6.8          6.8 
     195    740.94072    95197.047   -3679.8684   -4.8040058   -1838.5762   -1914.5595  -0.22872719    1855.1983          6.8          6.8 
     196    740.13739    94313.307   -3676.6497   -4.7998038   -1835.7223   -1914.1151  -0.22879085    1853.0281          6.8          6.8 
     197    745.41532    94008.652    -3676.425   -4.7995105   -1835.7028   -1914.4319   -0.2287953    1853.1036          6.8          6.8 
     198    750.76589    94004.486   -3676.7825   -4.7999772   -1836.0217   -1914.9996  -0.22878822    1853.4922          6.8          6.8 
     199     752.4719    93993.722   -3676.5989   -4.7997375   -1835.8281   -1915.1783  -0.22879186    1853.4039          6.8          6.8 
     200    751.99027    93843.103   -3676.7622   -4.7999507    -1835.586    -1915.536  -0.22878863    1853.3307          6.8          6.8 
     201     755.9017    93380.176   -3676.9098   -4.8001434   -1835.8401   -1915.8164  -0.22878571     1853.592          6.8          6.8 
     202    760.26656     93479.66    -3677.523   -4.8009438   -1835.9897   -1916.7115  -0.22877358     1853.951          6.8          6.8 
     203    757.36695    92709.359   -3677.5492    -4.800978    -1835.832   -1916.6087  -0.22877306    1853.8088          6.8          6.8 
     204    754.95627    92280.479   -3677.8263   -4.8013398   -1836.0186   -1916.4607  -0.22876758    1853.9007          6.8          6.8 
     205    757.18224    92422.639   -3678.3482   -4.8020211   -1836.2874   -1916.9339  -0.22875726    1854.2265          6.8          6.8 
     206    756.61984    92266.495   -3678.3974   -4.8020854   -1836.0741    -1917.141  -0.22875628    1854.1316          6.8          6.8 
     207    757.59078    92214.935   -3678.8217   -4.8026393   -1836.2676   -1917.4677  -0.22874789    1854.3621          6.8          6.8 
     208    760.07581    91991.283   -3678.9693    -4.802832   -1836.4907   -1917.6379  -0.22874497    1854.5701          6.8          6.8 
     209    760.11313     91875.02   -3679.3178   -4.8032869   -1836.5216   -1917.9593  -0.22873808    1854.6824          6.8          6.8 
     210    764.65172    92250.832   -3680.0189   -4.8042022     -1836.93   -1918.7007  -0.22872421    1855.1839          6.8          6.8 
     211    771.33619    92688.194   -3680.3435    -4.804626   -1837.2155   -1919.4008  -0.22871779    1855.5859          6.8          6.8 
     212    795.64828    92540.043   -3678.8099   -4.8026238   -1837.6872   -1919.7996  -0.22874812     1856.039          6.8          6.8 
     213    872.14881    93627.777   -3671.5377   -4.7931301   -1837.8782    -1919.901  -0.22889197    1856.2142          6.8          6.8 
     214    868.50787    93319.803    -3671.749    -4.793406    -1837.603   -1920.0275  -0.22888779     1856.052          6.8          6.8 
     215     868.5632    93180.843   -3672.0035   -4.7937383   -1837.6169   -1920.2736  -0.22888275    1856.1311          6.8          6.8 
     216    867.62001    92852.084   -3672.2977   -4.7941223   -1837.7305   -1920.3609  -0.22887693    1856.2369          6.8          6.8 
     217    867.23972    93107.208   -3672.8245   -4.7948101   -1837.6642   -1920.9164  -0.22886651    1856.3452          6.8          6.8 
     218    868.23284    93411.053   -3673.4082   -4.7955721   -1837.5191   -1921.7435  -0.22885497    1856.4735          6.8          6.8 
     219    864.93352    93531.129   -3673.7967   -4.7960792   -1837.3923   -1921.9325  -0.22884728    1856.4352          6.8          6.8 
     220    857.87972    92959.774   -3674.2227   -4.7966354    -1837.292   -1921.7613  -0.22883886    1856.3144          6.8          6.8 
     221    851.13268    92590.426   -3674.8433   -4.7974455   -1837.0296   -1921.9771  -0.22882658     1856.186          6.8          6.8 
     222    846.55272    92436.763   -3675.2128    -4.797928   -1836.8201   -1922.1032  -0.22881927    1856.0707          6.8          6.8 
     223    847.44198    93472.846   -3675.9171   -4.7988474   -1836.5925    -1923.123  -0.22880534    1856.1939          6.8          6.8 
     224    845.33103    93826.767   -3676.3189    -4.799372   -1836.2609   -1923.6478  -0.22879739    1856.1032          6.8          6.8 
     225    842.18965    93531.694   -3676.8514   -4.8000671   -1836.1255    -1924.005  -0.22878686    1856.1061          6.8          6.8 
     226    841.94377    93278.019   -3677.1599   -4.8004699   -1835.8689   -1924.5458  -0.22878076    1856.0739          6.8          6.8 
     227    840.91712    92785.816   -3677.6712   -4.8011373   -1835.8746   -1924.9498  -0.22877065    1856.1913          6.8          6.8 
     228    838.07377    92020.442   -3678.2823   -4.8019351   -1835.9654    -1925.189  -0.22875856    1856.3231          6.8          6.8 
     229    833.29392    91839.936   -3678.8816   -4.8027175    -1835.851     -1925.43   -0.2287467    1856.3082          6.8          6.8 
     230    828.35871    91631.539   -3679.2926    -4.803254   -1835.8005   -1925.4036  -0.22873858    1856.2639          6.8          6.8 
     231    824.17262    91757.873   -3679.7623   -4.8038672   -1835.6793   -1925.5805  -0.22872929    1856.2261          6.8          6.8 
     232    819.17224    91660.902   -3679.9056   -4.8040543   -1835.6162   -1925.2924  -0.22872645    1856.0994          6.8          6.8 
     233     817.4404    91907.392   -3679.9647   -4.8041315   -1835.5486   -1925.2479  -0.22872528    1856.0383          6.8          6.8 
     234     816.0566    92071.353   -3680.4729   -4.8047949   -1835.4676   -1925.7002  -0.22871523     1856.107          6.8          6.8 
     235    809.82089    92136.147    -3680.828   -4.8052584   -1835.4238   -1925.4825  -0.22870821    1856.0137          6.8          6.8 
     236    801.70309    92041.774   -3681.6068   -4.8062752   -1835.5408   -1925.3416   -0.2286928     1856.057          6.8          6.8 
     237    798.22687     91633.65   -3681.7841   -4.8065067   -1835.4649   -1925.2511  -0.22868929    1855.9767          6.8          6.8 
     238    798.46161    92257.819   -3682.2348   -4.8070951   -1835.4942   -1925.6957  -0.22868038    1856.1225          6.8          6.8 
     239    800.65923    92896.644   -3682.8305   -4.8078727   -1835.6038   -1926.3991   -0.2286686    1856.3988          6.8          6.8 
     240    798.76625    92793.029   -3683.1979   -4.8083524   -1835.7789   -1926.4042  -0.22866133    1856.5255          6.8          6.8 
     241    796.44493    92728.698   -3683.6089   -4.8088889   -1835.9032   -1926.4613   -0.2286532    1856.6303          6.8          6.8 
     242    799.95254     92682.02   -3683.8791   -4.8092416   -1836.0692   -1926.9124  -0.22864785    1856.8763          6.8          6.8 
     243    807.28073     91060.17   -3682.1248   -4.8069514   -1835.2251   -1926.7269  -0.22868255    1856.2202          6.8          6.8 
     244    810.89814    90511.681   -3682.0567   -4.8068626   -1835.1045   -1927.1371   -0.2286839    1856.2494          6.8          6.8 
     245    809.93848    89643.605   -3682.8795   -4.8079367   -1835.6281   -1927.3414  -0.22866763    1856.6819          6.8          6.8 
     246     808.1322    89331.258   -3683.0169    -4.808116   -1835.7409   -1927.1873  -0.22866491    1856.7192          6.8          6.8 
     247    811.73069    89582.978    -3683.988   -4.8093838    -1836.278   -1927.9771   -0.2286457    1857.3264          6.8          6.8 
     248    814.59556    89982.025   -3684.1629   -4.8096122   -1836.6045   -1928.1089  -0.22864224    1857.5977          6.8          6.8 
     249    820.15712    90027.126   -3684.0803   -4.8095043   -1836.7988   -1928.3819  -0.22864387    1857.8143          6.8          6.8 
     250    824.76079    90139.482   -3685.0206   -4.8107318   -1837.1707   -1929.4055  -0.22862528    1858.3688          6.8          6.8 
     251    825.54706    89236.219   -3685.0587   -4.8107816   -1837.4498   -1929.2423  -0.22862452    1858.5231          6.8          6.8 
     252    828.39879    88735.428   -3685.8262   -4.8117836   -1837.7949   -1929.9467  -0.22860934    1858.9685          6.8          6.8 
     253    831.90592    88087.735   -3686.2526   -4.8123402   -1838.1187   -1930.3961  -0.22860091    1859.3271          6.8          6.8 
     254    837.95503    88198.708   -3686.9852   -4.8132966   -1838.3481   -1931.4974  -0.22858642    1859.8015          6.8          6.8 
     255    833.22266     87151.01   -3686.8974    -4.813182    -1838.436   -1930.8538  -0.22858815    1859.6832          6.8          6.8 
     256    826.39372     86210.44   -3686.8317   -4.8130963   -1838.4168    -1930.132  -0.22858945     1859.466          6.8          6.8 
     257    828.36672    86316.178   -3687.6237   -4.8141302   -1838.9107   -1930.6253  -0.22857379    1859.9586          6.8          6.8 
     258    835.04427     86276.74   -3687.3472   -4.8137692   -1838.9839   -1930.9359  -0.22857925    1860.0991          6.8          6.8 
     259    836.36586    86329.998   -3688.0028   -4.8146251   -1839.2122   -1931.4938  -0.22856629    1860.4196          6.8          6.8 
     260    840.90085    86795.614   -3688.7493   -4.8155996   -1839.2343   -1932.6667  -0.22855152    1860.7652          6.8          6.8 
     261    848.52413    86700.716   -3688.4953   -4.8152681   -1839.4757   -1932.9251  -0.22855654    1861.0117          6.8          6.8 
     262    847.60523    86323.273   -3688.1742   -4.8148488   -1839.1735   -1932.8153   -0.2285629    1860.7642          6.8          6.8 
     263    841.36837    85580.706   -3688.5806   -4.8153793   -1839.2478   -1932.5306  -0.22855486    1860.7367          6.8          6.8 
     264    836.74482    85319.441   -3689.3967   -4.8164448   -1839.3495   -1932.7879  -0.22853872    1860.8812          6.8          6.8 
     265     840.6981    85043.071   -3689.8483   -4.8170343   -1839.3149    -1933.665  -0.22852978    1861.1031          6.8          6.8 
     266    847.78686     83772.82   -3688.9923   -4.8159168   -1839.4591   -1933.3657  -0.22854671    1861.1234          6.8          6.8 
     267    845.85616    83470.765   -3689.4223   -4.8164782    -1839.677   -1933.3869  -0.22853821    1861.2853          6.8          6.8 
     268    854.94998    82549.744    -3689.635   -4.8167559    -1840.001    -1934.175    -0.228534    1861.7398          6.8          6.8 
     269    866.83869    81980.668   -3689.4061    -4.816457   -1840.2884   -1934.8342  -0.22853853    1862.1324          6.8          6.8 
     270    865.83921    81797.057   -3690.0079   -4.8172426    -1840.453   -1935.1726  -0.22852663    1862.3452          6.8          6.8 
     271      862.436    81334.745   -3690.1278   -4.8173992   -1840.2846   -1935.1243  -0.22852425    1862.2105          6.8          6.8 
     272    863.64493    81186.405   -3690.4368   -4.8178026   -1840.1606   -1935.6769  -0.22851814    1862.2769          6.8          6.8 
     273     866.6265    81441.404   -3691.0798   -4.8186421   -1840.4094   -1936.3659  -0.22850542     1862.649          6.8          6.8 
     274    865.57684    81572.438   -3691.5772   -4.8192914   -1840.4569   -1936.7121  -0.22849558      1862.78          6.8          6.8 
     275    866.54553    81848.877   -3692.3776   -4.8203363   -1840.8548   -1937.2103  -0.22847975    1863.2052          6.8          6.8 
     276    870.69985    82475.679   -3692.5317   -4.8205375   -1840.7906   -1937.8394   -0.2284767    1863.3363          6.8          6.8 
     277    876.21843    83443.071   -3692.8618   -4.8209684   -1840.7628    -1938.743  -0.22847018    1863.5707          6.8          6.8 
     278    880.34803    84090.926   -3693.6911   -4.8220511   -1840.8501   -1939.8933  -0.22845377    1863.9567          6.8          6.8 
     279    876.90282    82865.381   -3691.0717   -4.8186314   -1839.5246   -1938.2587  -0.22850558    1862.5475          6.8          6.8 
     280    871.76095    82054.825   -3691.6506   -4.8193872   -1839.5555   -1938.2982  -0.22849413    1862.5801          6.8          6.8 
     281    863.99531    81272.399   -3692.0934   -4.8199652   -1839.4837    -1938.045  -0.22848538    1862.4565          6.8          6.8 
     282     857.5653    80984.874   -3692.6009   -4.8206277   -1839.3304     -1938.07  -0.22847534    1862.3528          6.8          6.8 
     283    857.96224     81111.31   -3693.3087   -4.8215518   -1839.3972   -1938.7503  -0.22846134    1862.5917          6.8          6.8 
     284    858.27392     80851.29   -3693.5861    -4.821914   -1839.5104   -1938.9453  -0.22845585    1862.7276          6.8          6.8 
     285    861.61153    81013.217   -3694.0938   -4.8225768   -1839.7985    -1939.495  -0.22844581    1863.0887          6.8          6.8 
     286    867.05821    81317.563    -3694.445   -4.8230352    -1840.095   -1940.0882  -0.22843886    1863.4685          6.8          6.8 
     287     868.3652    81458.588   -3694.9832   -4.8237379   -1840.0201   -1940.8306  -0.22842821    1863.6233          6.8          6.8 
     288    862.42898    80622.276    -3695.389   -4.8242677   -1839.9728   -1940.6967  -0.22842019    1863.5511          6.8          6.8 
     289     855.2774     79656.13   -3695.5788   -4.8245154   -1839.8184   -1940.3337  -0.22841643    1863.3376          6.8          6.8 
     290    848.89513    79418.048   -3695.6965   -4.8246691   -1839.5766   -1940.0621   -0.2284141    1863.0873          6.8          6.8 
     291    849.26143    80072.532   -3696.4947   -4.8257112   -1839.8056   -1940.6675  -0.22839832    1863.4214          6.8          6.8 
     292    847.95733    80296.793   -3696.4928   -4.8257086   -1839.7275   -1940.6146  -0.22839836    1863.3504          6.8          6.8 
     293    845.92795     80429.09   -3696.8698   -4.8262008    -1839.488   -1941.0306   -0.2283909    1863.2952          6.8          6.8 
     294    845.99506    80120.617   -3697.0804   -4.8264758   -1839.4559   -1941.2799  -0.22838673    1863.3422          6.8          6.8 
     295    843.50637     80195.99   -3697.2488   -4.8266956    -1839.174   -1941.4841   -0.2283834    1863.1971          6.8          6.8 
     296      838.152     79422.59    -3697.362   -4.8268433   -1839.2853   -1940.9565  -0.22838116    1863.1282          6.8          6.8 
     297    836.30763    78651.617   -3696.5853   -4.8258293   -1839.0111   -1940.2716  -0.22839653    1862.7392          6.8          6.8 
     298    836.21638    78462.954   -3697.3231   -4.8267926   -1839.3056    -1940.706  -0.22838193    1863.0721          6.8          6.8 
     299    838.64443    79012.297   -3698.1328   -4.8278496   -1839.4388   -1941.6226  -0.22836591    1863.4252          6.8          6.8 
     300    835.48587    79459.563   -3698.5526   -4.8283977   -1839.1451   -1942.0237  -0.22835761    1863.3268          6.8          6.8 
     301    829.83267    79244.263   -3699.0013   -4.8289835   -1839.1135   -1941.9451  -0.22834874    1863.2814          6.8          6.8 
     302      826.942    79783.888   -3699.8093   -4.8300382   -1839.1113   -1942.4693  -0.22833275    1863.4266          6.8          6.8 
     303    824.35668    80254.348   -3700.4963   -4.8309351   -1838.8248   -1943.1872  -0.22831917    1863.4224          6.8          6.8 
     304    825.77369    79972.849   -3700.0734    -4.830383   -1838.6765   -1943.0527  -0.22832753    1863.2786          6.8          6.8 
     305    841.24446    79869.522   -3699.0269   -4.8290169   -1839.0324   -1943.1802  -0.22834823    1863.5714          6.8          6.8 
     306    834.31625    79501.763   -3699.7296   -4.8299342   -1839.0685   -1943.1617  -0.22833433    1863.5912          6.8          6.8 
     307    831.13762    79750.214   -3700.2946   -4.8306718   -1839.0266   -1943.4542  -0.22832315    1863.6429          6.8          6.8 
     308    828.35466    79622.671   -3700.4279   -4.8308458    -1838.912   -1943.4269  -0.22832052    1863.5527          6.8          6.8 
     309    826.36189    79540.286   -3700.4743   -4.8309064    -1838.956   -1943.2322   -0.2283196    1863.5294          6.8          6.8 
     310    818.47369    78849.119   -3701.1968   -4.8318497   -1838.9412   -1943.1896  -0.22830531    1863.5058          6.8          6.8 
     311    813.92597    77895.735   -3701.5451   -4.8323044   -1838.7971   -1943.2323  -0.22829842    1863.4139          6.8          6.8 
     312    813.38919      77922.1   -3702.1602   -4.8331073   -1838.6188   -1943.9725  -0.22828625    1863.4938          6.8          6.8 
     313    809.63804    77607.501   -3701.8133   -4.8326545   -1837.9798   -1943.8937  -0.22829311    1863.0132          6.8          6.8 
     314    801.57427    77352.375   -3702.5844   -4.8336611   -1837.8516   -1943.9957  -0.22827786    1862.9489          6.8          6.8 
     315     793.1467    75993.024   -3700.9911    -4.831581   -1836.4054   -1943.0152  -0.22830938    1861.6361          6.8          6.8 
     316    787.65761    75383.527   -3701.2928   -4.8319749   -1836.5893   -1942.5902  -0.22830341    1861.6479          6.8          6.8 
     317    790.03807    75434.696   -3701.9636   -4.8328507   -1836.9902   -1943.0956  -0.22829014    1862.0774          6.8          6.8 
     318    787.02665    75096.693   -3702.1488   -4.8330924   -1836.7583   -1943.2149  -0.22828648    1861.9443          6.8          6.8 
     319    784.68287    75107.148   -3702.6783   -4.8337836   -1836.6451   -1943.6258  -0.22827601    1861.9782          6.8          6.8 
     320    783.00789    74665.592   -3703.1117   -4.8343495   -1836.9733   -1943.5653  -0.22826743    1862.1962          6.8          6.8 
     321    781.38586    74574.778   -3703.2367   -4.8345127   -1837.0666   -1943.4367  -0.22826496    1862.2268          6.8          6.8 
     322    786.49633    75248.673    -3703.579   -4.8349595   -1837.3134   -1944.0375  -0.22825819     1862.573          6.8          6.8 
     323    788.43664    75642.011   -3703.1966   -4.8344603   -1837.4292   -1943.7312  -0.22826575    1862.5702          6.8          6.8 
     324    781.22072    75368.625   -3703.5711   -4.8349493   -1837.4018   -1943.4195  -0.22825834    1862.4622          6.8          6.8 
     325    778.07373    75264.722   -3703.5108   -4.8348705    -1837.437   -1943.0128  -0.22825954    1862.3729          6.8          6.8 
     326    783.63943    76068.414   -3704.2506   -4.8358363   -1837.6927   -1944.0473   -0.2282449    1862.8472          6.8          6.8 
     327    776.77204    75571.033   -3704.6246   -4.8363245   -1837.7834   -1943.6515  -0.22823751    1862.8002          6.8          6.8 
     328    771.37658    74961.397    -3704.907   -4.8366933   -1837.8305   -1943.3533  -0.22823192    1862.7496          6.8          6.8 
     329    769.04777    75007.456   -3705.7101   -4.8377416   -1837.7928   -1943.9638  -0.22821604    1862.8936          6.8          6.8 
     330    770.40354    75047.875   -3705.8138    -4.837877   -1837.6658   -1944.3285  -0.22821399    1862.9052          6.8          6.8 
     331     769.1682    75343.065   -3705.7711   -4.8378212   -1837.5774   -1944.2521  -0.22821483    1862.8202          6.8          6.8 
     332    774.63116    76138.671   -3706.7457   -4.8390936   -1837.9235   -1945.4208  -0.22819555     1863.397          6.8          6.8 
     333    774.65092    76055.295   -3706.9637   -4.8393783   -1837.8052   -1945.7591  -0.22819124    1863.4071          6.8          6.8 
     334    771.59026    76043.016   -3707.6246    -4.840241   -1837.9138   -1946.0088  -0.22817817    1863.5546          6.8          6.8 
     335    771.62885     76026.84   -3707.9706   -4.8406927   -1838.1309   -1946.1414  -0.22817132    1863.7475          6.8          6.8 
     336    769.73398     75665.74   -3708.2893   -4.8411087   -1838.2887    -1946.115  -0.22816502    1863.8529          6.8          6.8 
     337     769.5144    75540.842   -3708.6419    -4.841569   -1838.3151   -1946.4194  -0.22815805    1863.9573          6.8          6.8 
     338    776.55433    76215.137   -3709.5999   -4.8428197   -1838.4791   -1947.9096  -0.22813909     1864.494          6.8          6.8 
     339    773.02834    75540.212   -3709.2162   -4.8423189   -1838.2781   -1947.3783  -0.22814668    1864.2003          6.8          6.8 
     340     770.6578    75328.401   -3709.7843   -4.8430605   -1838.4341   -1947.5559  -0.22813545    1864.3617          6.8          6.8 
     341    777.71296     75074.53   -3709.3469   -4.8424894   -1838.7724   -1947.4779   -0.2281441    1864.5831          6.8          6.8 
     342    779.94506     74635.33    -3709.171   -4.8422598   -1839.1175   -1947.1776  -0.22814758    1864.7465          6.8          6.8 
     343    782.08831    74964.481   -3709.5333   -4.8427328   -1839.2118   -1947.6575  -0.22814041    1864.9491          6.8          6.8 
     344    785.65863    75173.107   -3709.1372   -4.8422156   -1839.0997   -1947.7266  -0.22814825    1864.8885          6.8          6.8 
     345    787.32609    75442.239   -3710.0008    -4.843343   -1839.1582   -1948.6965  -0.22813117     1865.203          6.8          6.8 
     346    776.55113    74512.902    -3709.887   -4.8431945   -1838.7312   -1947.9443  -0.22813342    1864.6844          6.8          6.8 
     347    774.85179    74159.195   -3710.3379   -4.8437832    -1838.606   -1948.3523   -0.2281245     1864.709          6.8          6.8 
     348    775.00711    73627.507   -3709.9899   -4.8433289   -1838.3792   -1948.2465  -0.22813138    1864.5168          6.8          6.8 
     349    776.09978    73184.559   -3710.4864   -4.8439771    -1838.629   -1948.6013  -0.22812156    1864.7955          6.8          6.8 
     350    774.08221    73296.956   -3710.8016   -4.8443885   -1838.6053   -1948.7406  -0.22811533    1864.8174          6.8          6.8 
     351    773.37748    72959.906   -3710.9358   -4.8445637   -1838.8106   -1948.5998  -0.22811267    1864.9249          6.8          6.8 
     352    771.67265     73094.42   -3711.6237   -4.8454617   -1838.9262   -1949.0035  -0.22809906    1865.1208          6.8          6.8 
     353    771.32019    73113.988   -3712.1007   -4.8460845   -1839.1334   -1949.2385  -0.22808963    1865.3352          6.8          6.8 
     354    775.31801    73464.424    -3712.642   -4.8467911   -1839.4176   -1949.8909  -0.22807892    1865.7226          6.8          6.8 
     355    776.47832    73694.298   -3713.1499   -4.8474542   -1839.7933   -1950.1379  -0.22806888    1866.0613          6.8          6.8 
     356    776.35543     74104.52   -3713.7386   -4.8482227   -1840.0209   -1950.4868  -0.22805723    1866.3223          6.8          6.8 
     357    774.81137      74495.8   -3714.1977    -4.848822   -1840.0103   -1950.8038  -0.22804815    1866.4035          6.8          6.8 
     358    773.88263    75186.115   -3714.7395   -4.8495293   -1840.0822   -1951.1819  -0.22803743     1866.561          6.8          6.8 
     359    776.08932     75830.56   -3715.3425   -4.8503166   -1840.1697   -1951.9156  -0.22802551      1866.83          6.8          6.8 
     360     776.9149    76455.035   -3715.9473   -4.8511061   -1840.3243   -1952.4475  -0.22801354    1867.0902          6.8          6.8 
     361    774.78229    76654.778   -3716.3895   -4.8516834   -1840.3874   -1952.6156   -0.2280048    1867.1823          6.8          6.8 
     362    772.37894    76765.258   -3716.8754   -4.8523178   -1840.2265   -1953.0248  -0.22799519    1867.1815          6.8          6.8 
     363    770.91806     76535.31   -3717.3045   -4.8528779   -1840.2721   -1953.2639   -0.2279867    1867.2811          6.8          6.8 
     364    771.02332    75292.489   -3714.1574   -4.8487694   -1838.5128   -1951.8864  -0.22804895    1865.6336          6.8          6.8 
     365    773.88297    74749.954   -3714.8114   -4.8496233   -1838.6485   -1952.6876  -0.22803601    1865.9561          6.8          6.8 
     366    772.24045    74155.747   -3714.7454    -4.849537   -1838.3193   -1952.7883  -0.22803732    1865.7482          6.8          6.8 
     367    772.29478    73987.276   -3715.2607   -4.8502098   -1838.7394   -1952.8889  -0.22802712    1866.0776          6.8          6.8 
     368    771.84146     74402.62      -3715.6   -4.8506528   -1839.0305   -1952.8924  -0.22802041    1866.2871          6.8          6.8 
     369    768.48925    75001.128   -3716.2325   -4.8514784   -1839.0557   -1953.1681   -0.2280079    1866.3821          6.8          6.8 
     370    763.92846    75194.008   -3717.2243   -4.8527733   -1839.1588   -1953.6058  -0.22798828    1866.5783          6.8          6.8 
     371    770.82722    75752.568   -3717.3487   -4.8529356   -1839.3177   -1954.2534  -0.22798582    1866.8749          6.8          6.8 
     372    808.38273    75965.873   -3713.9024   -4.8484366   -1839.4638   -1954.3748  -0.22805399    1867.0184          6.8          6.8 
     373    812.53175    76007.367   -3714.3892   -4.8490721   -1839.5988   -1955.1368  -0.22804436    1867.3296          6.8          6.8 
     374    812.38354    76164.267    -3714.284   -4.8489347   -1839.1836   -1955.4322  -0.22804644    1867.1149          6.8          6.8 
     375    812.19208    76319.543   -3714.8608   -4.8496878   -1839.3774   -1955.7962  -0.22803503     1867.356          6.8          6.8 
     376    816.14622    76490.362   -3715.3501   -4.8503264   -1839.9255   -1956.1284  -0.22802536    1867.8426          6.8          6.8 
     377     815.5102    76256.266   -3714.7266   -4.8495126   -1839.9917   -1955.3759  -0.22803769    1867.6787          6.8          6.8 
     378    814.15453    76320.811   -3715.2163   -4.8501518   -1840.1508   -1955.5724    -0.228028    1867.8477          6.8          6.8 
     379    808.20413    76297.973   -3715.7607   -4.8508626   -1840.0281   -1955.6511  -0.22801723    1867.7811          6.8          6.8 
     380    805.90125    75883.063   -3715.7836   -4.8508924   -1840.1799   -1955.2944  -0.22801678    1867.7895          6.8          6.8 
     381    809.05316     76943.31   -3716.7569    -4.852163   -1840.5905   -1956.1688  -0.22799753    1868.3296          6.8          6.8 
     382    814.32511    77970.509   -3717.1644   -4.8526951   -1840.5794   -1957.1087  -0.22798947    1868.5862          6.8          6.8 
     383    812.99555    78044.038   -3717.4115   -4.8530176   -1840.4501   -1957.3536  -0.22798458    1868.5621          6.8          6.8 
     384    805.23885    77523.204   -3717.9833   -4.8537641   -1840.3428   -1957.2658  -0.22797327    1868.4595          6.8          6.8 
     385       803.28    76965.462   -3718.8392   -4.8548814   -1840.4629   -1957.8079  -0.22795634    1868.6974          6.8          6.8 
     386    796.36339    76300.435   -3719.2775   -4.8554536   -1840.2225   -1957.8026  -0.22794767    1868.5228          6.8          6.8 
     387    787.26726    75142.493   -3719.8453   -4.8561948   -1840.0813   -1957.6121  -0.22793644     1868.367          6.8          6.8 
     388    782.61017    74349.242     -3720.38    -4.856893   -1840.1892   -1957.5785  -0.22792586    1868.4342          6.8          6.8 
     389    780.80706    73902.246   -3720.8843   -4.8575513    -1840.321   -1957.7727  -0.22791589    1868.5829          6.8          6.8 
     390     777.9561    73847.971    -3721.477    -4.858325    -1840.431   -1957.9734  -0.22790417    1868.7178          6.8          6.8 
     391    774.31092    73848.441   -3722.0404   -4.8590605   -1840.4702   -1958.1371  -0.22789302    1868.7914          6.8          6.8 
     392    774.10097     74105.72   -3722.6992   -4.8599206   -1840.5211   -1958.7243  -0.22787999    1868.9926          6.8          6.8 
     393    773.14532    74108.487   -3723.1736   -4.8605399   -1840.3796   -1959.2457  -0.22787061    1869.0374          6.8          6.8 
     394    769.14475      73632.2   -3723.7872   -4.8613411    -1840.256   -1959.5874  -0.22785847    1869.0442          6.8          6.8 
     395    790.33277    73454.111   -3721.6509   -4.8585521   -1840.2908   -1959.5114  -0.22790073    1869.0506          6.8          6.8 
     396    854.09672    74858.707   -3715.4737   -4.8504879   -1840.0283    -1959.902  -0.22802291    1868.9803          6.8          6.8 
     397    848.75289    75039.504   -3716.2081   -4.8514465   -1840.0122    -1960.124  -0.22800839    1869.0304          6.8          6.8 
     398    848.40919    75185.645   -3716.4249   -4.8517296   -1839.9691   -1960.3499   -0.2280041    1869.0629          6.8          6.8 
     399    850.74922    74442.111   -3715.9647   -4.8511289   -1840.1347   -1959.9555   -0.2280132    1869.0712          6.8          6.8 
     400    848.62211    74203.139   -3716.8265   -4.8522539   -1840.1771   -1960.5646  -0.22799615    1869.2722          6.8          6.8 
     401     844.1475    73876.328   -3717.3968   -4.8529984   -1840.2336   -1960.6358  -0.22798487    1869.3322          6.8          6.8 
     402    840.91645    74367.962   -3718.3476   -4.8542397   -1840.0659   -1961.4349  -0.22796607    1869.4358          6.8          6.8 
     403    830.43441    73189.564   -3718.2532   -4.8541165   -1839.8353   -1960.5346  -0.22796793    1869.0165          6.8          6.8 
     404     824.2314    73053.785   -3719.3441   -4.8555406   -1840.0726   -1960.7748  -0.22794635    1869.2532          6.8          6.8 
     405    823.40489    72949.605   -3719.1101   -4.8552351   -1839.9109   -1960.6207  -0.22795098     1869.094          6.8          6.8 
     406    819.15524    73342.831   -3719.9756    -4.856365    -1839.943    -1961.034  -0.22793386    1869.2324          6.8          6.8 
     407    818.49942    73970.795   -3720.7905   -4.8574289   -1840.1028   -1961.6242  -0.22791774    1869.5125          6.8          6.8 
     408     819.2001    74704.574   -3721.3938   -4.8582164   -1839.9677   -1962.4319  -0.22790581    1869.6425          6.8          6.8 
     409    822.15075    75746.932   -3721.9108   -4.8588914   -1840.0451   -1963.1633  -0.22789558    1869.9036          6.8          6.8 
     410    817.92425    75947.869   -3722.4949   -4.8596539   -1840.1733   -1963.2012  -0.22788403    1870.0056          6.8          6.8 
     411    811.09843    75631.689   -3722.9123   -4.8601988    -1840.347     -1962.77  -0.22787578    1870.0081          6.8          6.8 
     412    801.85806    75003.976   -3723.3613    -4.860785   -1840.4164   -1962.2358  -0.22786689    1869.9068          6.8          6.8 
     413    796.37353    74990.396   -3724.1817    -4.861856   -1840.6449   -1962.2854  -0.22785067    1870.0837          6.8          6.8 
     414    795.35227    75318.291   -3724.7797   -4.8626367   -1840.6656   -1962.7617  -0.22783884    1870.2322          6.8          6.8 
     415    793.61313    75571.177   -3725.2448   -4.8632439   -1840.3749   -1963.3455  -0.22782964    1870.1875          6.8          6.8 
     416    796.64201    76030.045   -3725.8504   -4.8640345   -1840.4785   -1964.1471  -0.22781766    1870.4871          6.8          6.8 
     417    792.13307    75439.347   -3725.7092   -4.8638502   -1840.4321   -1963.6064  -0.22782045    1870.3015          6.8          6.8 
     418    791.12718    75338.543   -3726.2865   -4.8646037   -1840.5704   -1963.9459  -0.22780903    1870.4958          6.8          6.8 
     419    788.05784    74926.334   -3726.5604   -4.8649613   -1840.4462   -1964.0405  -0.22780362    1870.4329          6.8          6.8 
     420    787.73043    74626.675   -3724.9301    -4.862833   -1838.9945   -1963.8296  -0.22783586    1869.3332          6.8          6.8 
     421     783.5555     74444.39   -3724.9088   -4.8628053    -1838.771   -1963.6189  -0.22783628    1869.1134          6.8          6.8 
     422    774.70968    74124.451   -3725.5068   -4.8635859   -1838.7593    -1963.354  -0.22782446    1869.0294          6.8          6.8 
     423    766.39875    74117.188   -3726.0739   -4.8643263     -1838.72   -1963.1385  -0.22781324    1868.9398          6.8          6.8 
     424    762.93395    74389.286    -3726.707   -4.8651527   -1838.9991   -1963.1499  -0.22780072    1869.1425          6.8          6.8 
     425    764.54441    75361.424   -3727.5832   -4.8662966   -1839.3697   -1963.8147  -0.22778339     1869.595          6.8          6.8 
     426    758.23584    75944.125   -3727.8054   -4.8665867   -1839.2686   -1963.5142  -0.22777899    1869.4373          6.8          6.8 
     427    750.30659     76332.11   -3728.4224   -4.8673922   -1839.1921   -1963.4236  -0.22776678    1869.3561          6.8          6.8 
     428    744.81838    76683.319   -3728.7668   -4.8678418   -1839.0039   -1963.4135  -0.22775997    1869.2176          6.8          6.8 
     429    744.15339    76814.004   -3729.1029   -4.8682806   -1839.1473   -1963.5405  -0.22775332     1869.356          6.8          6.8 
     430    743.73042    76689.423   -3729.5718   -4.8688927   -1839.2231   -1963.8917  -0.22774405    1869.5088          6.8          6.8 
     431    740.52968    75932.863   -3730.0687   -4.8695413   -1839.3084   -1963.9868  -0.22773422    1869.5962          6.8          6.8 
     432    735.91525    74892.302   -3730.5719   -4.8701983   -1839.4845   -1963.8577  -0.22772427    1869.6856          6.8          6.8 
     433    736.81451    74678.168   -3731.1399   -4.8709399   -1839.8361   -1964.1631  -0.22771303    1870.0234          6.8          6.8 
     434    735.79021     74099.03    -3731.686   -4.8716528   -1840.1599    -1964.284  -0.22770223    1870.2893          6.8          6.8 
     435    734.18241    73622.964   -3732.1815   -4.8722995   -1840.5341   -1964.2462  -0.22769243    1870.5467          6.8          6.8 
     436     735.3795    73384.096   -3732.7351   -4.8730223   -1840.8564    -1964.596  -0.22768148     1870.876          6.8          6.8 
     437    737.89681     73187.51   -3733.2521   -4.8736973   -1841.2334   -1964.9849  -0.22767125    1871.2557          6.8          6.8 
     438    737.79966    73045.705   -3733.6909   -4.8742701   -1841.3854   -1965.2622  -0.22766257    1871.4424          6.8          6.8 
     439    737.19081    73086.897   -3734.3049   -4.8750717     -1841.38   -1965.8213  -0.22765043    1871.5954          6.8          6.8 
[...]
    9869    410.61504    49166.004   -3895.1376    -5.085036   -1884.8917   -2050.8491  -0.22446915    1926.6041          6.8          6.8 
    9870    414.27935    49245.313   -3894.5652   -5.0842888   -1884.6924   -2050.8384  -0.22448047    1926.4587          6.8          6.8 
    9871    415.98121    49898.769   -3894.7125   -5.0844811    -1884.682   -2051.1644  -0.22447756     1926.543          6.8          6.8 
    9872    408.98866    49659.263   -3894.7113   -5.0844795   -1884.4964   -2050.6573  -0.22447758    1926.2667          6.8          6.8 
    9873    449.26254    49284.461   -3890.1735   -5.0785555   -1884.4695   -2050.1289  -0.22456734    1926.1043          6.8          6.8 
    9874    647.18878    52047.154   -3870.8602   -5.0533423   -1884.5152   -2050.3417  -0.22494936    1926.2223          6.8          6.8 
    9875    633.94251    51263.732   -3871.2508   -5.0538522   -1884.2394   -2049.6982  -0.22494163    1925.8423          6.8          6.8 
    9876    628.26925    51503.255   -3871.6171   -5.0543304   -1883.8391   -2049.9038  -0.22493439    1925.6124          6.8          6.8 
    9877    626.07722    52104.547   -3872.2668   -5.0551786    -1883.733   -2050.4428  -0.22492154    1925.6874          6.8          6.8 
    9878    616.79576    51918.712   -3872.5807   -5.0555884   -1883.5331   -2050.0389  -0.22491533    1925.4295          6.8          6.8 
    9879     612.2795    52587.577   -3873.1078   -5.0562764   -1883.4167   -2050.2357   -0.2249049    1925.4008          6.8          6.8 
    9880    607.71745    53358.208   -3873.5383   -5.0568386   -1883.2632   -2050.3686  -0.22489639    1925.3275          6.8          6.8 
    9881    596.81925    53046.653   -3873.7777    -5.057151   -1883.2325   -2049.5611  -0.22489165    1925.0774          6.8          6.8 
    9882     584.7454      52666.3   -3873.9145   -5.0573297   -1883.2249   -2048.5115  -0.22488894    1924.7758          6.8          6.8 
    9883    579.11238    53439.252   -3874.4215   -5.0579915    -1882.899   -2048.7874  -0.22487892     1924.619          6.8          6.8 
    9884    577.74712    53684.305   -3873.8872    -5.057294   -1882.2756   -2048.7416  -0.22488949    1924.1591          6.8          6.8 
    9885    569.47501    53792.615   -3872.8861   -5.0559871   -1881.3632   -2047.8349  -0.22490929    1923.2496          6.8          6.8 
    9886    551.15663    53459.125    -3873.261   -5.0564766   -1880.7834   -2046.9782  -0.22490187    1922.5913          6.8          6.8 
    9887    539.84787    54207.447    -3873.736   -5.0570966    -1879.934   -2047.1844  -0.22489248    1922.0389          6.8          6.8 
    9888    531.90857    54270.929   -3873.8966   -5.0573063   -1879.4622   -2047.0316   -0.2248893    1921.6569          6.8          6.8 
    9889    519.74988    54791.764   -3874.5268    -5.058129   -1878.7641   -2047.1577  -0.22487683    1921.1903          6.8          6.8 
    9890     516.9578    54840.128   -3873.6019   -5.0569215   -1878.3093   -2046.4114  -0.22489513    1920.6546          6.8          6.8 
    9891     536.5501    55819.777   -3869.3472   -5.0513671   -1877.4844    -2044.919  -0.22497929    1919.6469          6.8          6.8 
    9892    527.17685    56514.893   -3869.5244   -5.0515984   -1876.4814   -2045.1723  -0.22497578     1918.998          6.8          6.8 
    9893    515.31681    56367.071    -3869.727   -5.0518629   -1876.0225    -2044.661  -0.22497177    1918.5241          6.8          6.8 
    9894    506.41014    56094.357   -3870.0893   -5.0523359   -1875.9357   -2044.2294  -0.22496461    1918.3396          6.8          6.8 
    9895    498.17202    55931.139   -3870.4834   -5.0528504   -1875.7537   -2043.9909  -0.22495681    1918.1411          6.8          6.8 
    9896    493.40296    56817.176   -3870.8036   -5.0532683   -1875.4697   -2044.1235  -0.22495048    1917.9742          6.8          6.8 
    9897     488.1785    55974.083   -3871.3246   -5.0539485   -1875.5044   -2044.0932  -0.22494017    1917.9899          6.8          6.8 
    9898    496.85804    55415.931   -3870.0575   -5.0522944   -1875.6496   -2043.5393  -0.22496524    1917.9395          6.8          6.8 
    9899    552.30478    56261.114   -3865.3465   -5.0461442   -1876.1241   -2043.8365  -0.22505842    1918.3702          6.8          6.8 
    9900    554.31797     55994.83   -3865.7302   -5.0466452   -1876.6661   -2043.8773  -0.22505083    1918.7704          6.8          6.8 
    9901    557.74414    56284.819   -3866.1792   -5.0472313   -1877.2592    -2044.072  -0.22504195    1919.2506          6.8          6.8 
    9902    568.34667     56762.62   -3866.4441   -5.0475772   -1877.9106   -2044.7339  -0.22503671    1919.9046          6.8          6.8 
    9903    584.32122     57080.87   -3865.6857   -5.0465871   -1878.4509   -2045.0148  -0.22505171    1920.3728          6.8          6.8 
    9904    592.76455    58001.909   -3866.3027   -5.0473926   -1878.7903   -2046.1274  -0.22503951    1920.9293          6.8          6.8 
    9905    599.27328    58168.159   -3866.4062   -5.0475277   -1879.3945   -2046.2703  -0.22503746    1921.4033          6.8          6.8 
    9906    602.27723    57786.627   -3866.8894   -5.0481585   -1880.1677   -2046.2773   -0.2250279    1921.9598          6.8          6.8 
    9907    603.63043    57744.003   -3867.3996   -5.0488245   -1880.5561   -2046.5329  -0.22501781    1922.3101          6.8          6.8 
    9908    604.78327    57342.974   -3867.8821   -5.0494544   -1881.0728   -2046.6127  -0.22500827     1922.703          6.8          6.8 
    9909    607.42104    57032.203   -3868.4028   -5.0501342   -1881.6271   -2046.8399  -0.22499797    1923.1644          6.8          6.8 
    9910    610.61848    57192.514    -3868.998   -5.0509112   -1882.0049   -2047.3734  -0.22498619    1923.5853          6.8          6.8 
    9911    612.37294    57105.346   -3869.5268   -5.0516015   -1882.4227    -2047.658  -0.22497573    1923.9649          6.8          6.8 
    9912    608.29239     56820.02   -3869.8694   -5.0520488   -1882.5865   -2047.4333  -0.22496896    1924.0186          6.8          6.8 
    9913    596.49524    55738.266   -3870.4516   -5.0528089   -1882.7763   -2046.6591  -0.22495744    1923.9359          6.8          6.8 
    9914    589.77392    55460.318   -3871.1082   -5.0536661   -1882.9638   -2046.4636  -0.22494445    1924.0145          6.8          6.8 
    9915    585.45036    56021.649   -3871.2905    -5.053904   -1882.4073   -2046.7748  -0.22494085    1923.7025          6.8          6.8 
    9916     578.9697    55919.835   -3871.8105   -5.0545829   -1882.5248   -2046.5366  -0.22493056     1923.719          6.8          6.8 
    9917    572.54055    55974.692   -3872.4117   -5.0553678   -1882.4929    -2046.534  -0.22491867    1923.6945          6.8          6.8 
    9918    569.25537    56613.694   -3872.8325   -5.0559171   -1881.9572   -2047.1656  -0.22491035    1923.4874          6.8          6.8 
    9919    568.51954    57469.607    -3873.593     -5.05691   -1881.8641   -2047.9465   -0.2248953    1923.6398          6.8          6.8 
    9920    561.69286    57560.294   -3873.8406   -5.0572332   -1881.9782   -2047.4049  -0.22489041    1923.5687          6.8          6.8 
    9921    554.94055    57807.492   -3874.4083   -5.0579742   -1881.8894   -2047.3936  -0.22487918     1923.501          6.8          6.8 
    9922    549.70374    58195.913     -3874.71   -5.0583682   -1881.6532   -2047.4137  -0.22487321    1923.3367          6.8          6.8 
    9923    550.18334    58832.407   -3874.8703   -5.0585774   -1881.2595   -2048.0151  -0.22487004    1923.2234          6.8          6.8 
    9924    545.61853    59303.847   -3875.3726   -5.0592332   -1881.0047   -2048.3209   -0.2248601     1923.126          6.8          6.8 
    9925     537.9621    59031.541   -3875.5775   -5.0595006   -1881.0558   -2047.7175  -0.22485605    1922.9923          6.8          6.8 
    9926    529.01101    58976.349    -3875.889   -5.0599073   -1880.8385   -2047.3612  -0.22484989    1922.7354          6.8          6.8 
    9927    517.15087    58856.294   -3876.5531   -5.0607743   -1880.8053   -2046.8858  -0.22483675    1922.5766          6.8          6.8 
    9928    506.23866    58742.908   -3876.9937   -5.0613494   -1880.5931   -2046.4595  -0.22482804    1922.3034          6.8          6.8 
    9929    494.85803    58383.895   -3877.3679   -5.0618379   -1880.6152   -2045.6862  -0.22482064    1922.1008          6.8          6.8 
    9930    490.19948    58517.217   -3877.6645   -5.0622252   -1880.5882   -2045.5492  -0.22481477    1922.0424          6.8          6.8 
    9931    492.13094    59326.143   -3878.2501   -5.0629897     -1880.51   -2046.4041  -0.22480319    1922.2265          6.8          6.8 
    9932    494.62702    59503.125   -3878.2627   -5.0630061   -1880.3836   -2046.7898  -0.22480294    1922.2445          6.8          6.8 
    9933    495.13669     59349.28   -3878.8084   -5.0637186   -1880.4342   -2047.3353  -0.22479214     1922.434          6.8          6.8 
    9934    491.61986    59284.602   -3879.1462   -5.0641595    -1880.471   -2047.2885  -0.22478546    1922.4468          6.8          6.8 
    9935    486.60031    59474.761   -3879.5938   -5.0647439   -1880.4398   -2047.2711  -0.22477661    1922.4188          6.8          6.8 
    9936    480.78938     59163.62   -3880.0445   -5.0653322   -1880.6179    -2046.969  -0.22476769     1922.461          6.8          6.8 
    9937    475.59772    58850.877   -3880.4217   -5.0658246   -1880.6948   -2046.7559  -0.22476023    1922.4556          6.8          6.8 
    9938    474.57883    58792.048   -3880.7773   -5.0662889   -1880.9536   -2046.7519   -0.2247532    1922.6399          6.8          6.8 
    9939    471.78427    58092.989   -3880.4826   -5.0659041   -1880.7869   -2046.3476  -0.22475903    1922.4065          6.8          6.8 
    9940    467.19085    57893.019   -3880.8793   -5.0664221   -1880.9598   -2046.1172  -0.22475118    1922.4652          6.8          6.8 
    9941    464.04402    57590.413     -3881.28   -5.0669451    -1881.423   -2045.7435  -0.22474326    1922.6919          6.8          6.8 
    9942     463.4684    57433.045   -3881.5604   -5.0673113   -1881.6315   -2045.7586  -0.22473771    1922.8454          6.8          6.8 
    9943    468.00011    57568.417   -3881.7581   -5.0675694   -1881.7489    -2046.287   -0.2247338    1923.0785          6.8          6.8 
    9944    467.06378    57179.766    -3881.905   -5.0677611   -1881.9316   -2046.1585  -0.22473089    1923.1733          6.8          6.8 
    9945    465.11381    56659.662    -3882.058   -5.0679609   -1881.9804   -2046.0699  -0.22472787    1923.1831          6.8          6.8 
    9946    461.61106    56385.921   -3882.1868    -5.068129   -1882.0296   -2045.8032  -0.22472532    1923.1431          6.8          6.8 
    9947    459.92512     56043.42   -3882.6373   -5.0687171   -1882.3996   -2045.7169  -0.22471641    1923.3838          6.8          6.8 
    9948    467.39425    56308.844   -3882.9568   -5.0691343   -1882.7809   -2046.3937  -0.22471009     1923.848          6.8          6.8 
    9949    473.58826    56379.645    -3882.503   -5.0685418   -1882.6246   -2046.7087  -0.22471906    1923.8252          6.8          6.8 
    9950    474.39897    56358.182   -3883.1831   -5.0694296   -1882.8404   -2047.2531  -0.22470561    1924.1328          6.8          6.8 
    9951    479.54108    56558.005   -3883.3812   -5.0696883   -1883.1022    -2047.698  -0.22470169    1924.4459          6.8          6.8 
    9952    482.19203    56621.258   -3883.5014   -5.0698451   -1883.2471   -2047.9353  -0.22469932    1924.6168          6.8          6.8 
    9953    482.19772    56138.587   -3883.9492   -5.0704298   -1883.7761   -2047.8548  -0.22469046    1924.9733          6.8          6.8 
    9954    478.27024    55620.686   -3884.4992   -5.0711478   -1884.0566   -2047.7359  -0.22467958    1925.1405          6.8          6.8 
    9955     473.0767    55400.846   -3884.8478   -5.0716028   -1884.0531   -2047.5744  -0.22467268    1925.0919          6.8          6.8 
    9956    471.44555    55675.495   -3885.8269    -5.072881   -1884.4378   -2048.0075  -0.22465332     1925.489          6.8          6.8 
    9957    467.90599    54602.954   -3885.7062   -5.0727235   -1884.9977    -2046.977   -0.2246557    1925.6006          6.8          6.8 
    9958    478.11932    54250.225   -3884.3605   -5.0709667   -1885.0933   -2046.5455  -0.22468232    1925.5493          6.8          6.8 
    9959    480.46524    54370.988   -3884.5367   -5.0711967    -1885.228    -2046.819  -0.22467884    1925.7229          6.8          6.8 
    9960    496.10721    54623.788   -3883.6786   -5.0700764   -1885.5878   -2047.1478  -0.22469581    1926.0751          6.8          6.8 
    9961    547.36392     54425.06    -3878.844   -5.0637651   -1886.3312   -2046.6384  -0.22479144    1926.4715          6.8          6.8 
    9962    554.24571    53981.672   -3878.8051   -5.0637142   -1886.9708   -2046.6403  -0.22479221    1926.9314          6.8          6.8 
    9963    553.56543    54195.894   -3879.2929   -5.0643511   -1887.0521   -2046.9796  -0.22478256    1927.0848          6.8          6.8 
    9964    550.91377    54532.557   -3879.7419   -5.0649372   -1886.8593   -2047.3591  -0.22477368    1927.0528          6.8          6.8 
    9965     545.2442     54621.07    -3880.236   -5.0655823   -1886.6844   -2047.4675  -0.22476391    1926.9572          6.8          6.8 
    9966     540.4728    54342.547   -3882.5372   -5.0685864   -1887.5796   -2048.4017  -0.22471839    1927.8603          6.8          6.8 
    9967    539.17238    54203.518   -3883.0766   -5.0692906   -1887.7525   -2048.6396  -0.22470772    1928.0508          6.8          6.8 
    9968     531.8595    53584.007   -3883.3934   -5.0697042   -1887.8797   -2048.1061  -0.22470145    1927.9913          6.8          6.8 
    9969    521.52272    53032.393   -3883.8231   -5.0702652    -1887.788   -2047.6054  -0.22469295    1927.7838          6.8          6.8 
    9970    514.07513    52841.782   -3884.3042   -5.0708932   -1887.6182   -2047.5197  -0.22468344    1927.6371          6.8          6.8 
    9971    511.30434    53226.401   -3884.8411   -5.0715941    -1887.417   -2047.9839  -0.22467282    1927.6228          6.8          6.8 
    9972    507.71942    53425.083   -3885.3415   -5.0722474    -1886.973   -2048.5738  -0.22466292    1927.4697          6.8          6.8 
    9973    502.29118    53380.756   -3885.7732    -5.072811   -1886.7871   -2048.6546  -0.22465438    1927.3584          6.8          6.8 
    9974    496.13217    53291.497   -3886.3267   -5.0735335   -1886.9596   -2048.4266  -0.22464343    1927.4173          6.8          6.8 
    9975    486.62365    52988.823   -3886.6033   -5.0738946   -1886.8771   -2047.8455  -0.22463796    1927.1938          6.8          6.8 
    9976    479.47646    52688.684   -3886.8584   -5.0742277   -1886.7274   -2047.5435  -0.22463291    1927.0008          6.8          6.8 
    9977    470.31088    51814.253   -3887.2228   -5.0747034   -1886.8886   -2046.8405  -0.22462571    1926.9178          6.8          6.8 
    9978    465.40116    51834.055   -3887.6311   -5.0752364   -1886.4946   -2047.1572  -0.22461763    1926.7237          6.8          6.8 
    9979     468.0943    52439.819   -3887.6346    -5.075241   -1886.2494   -2047.6722  -0.22461756    1926.6929          6.8          6.8 
    9980    470.53442    52685.289   -3887.2154   -5.0746937   -1885.8122   -2047.9315  -0.22462585    1926.4526          6.8          6.8 
    9981    460.68717    52241.835   -3887.5874   -5.0751793   -1885.7573   -2047.3847   -0.2246185    1926.2585          6.8          6.8 
    9982    454.54388    51573.937   -3887.7222   -5.0753554   -1885.7955   -2046.8739  -0.22461583    1926.1417          6.8          6.8 
    9983    451.39212     51819.29   -3888.0682   -5.0758071    -1885.814   -2046.8896  -0.22460898     1926.159          6.8          6.8 
    9984    449.70342    51986.961   -3888.1389   -5.0758993   -1885.7458   -2046.8615  -0.22460759     1926.102          6.8          6.8 
    9985    450.66193    52847.971    -3888.725   -5.0766644   -1885.4943   -2047.7939  -0.22459599    1926.1836          6.8          6.8 
    9986    445.64924    52991.161   -3888.9008    -5.076894   -1885.2169   -2047.7515  -0.22459251    1925.9722          6.8          6.8 
    9987    439.71818    53179.163    -3889.306    -5.077423   -1885.0977   -2047.6894   -0.2245845    1925.8686          6.8          6.8 
    9988     437.9675    53198.647   -3889.2843   -5.0773946   -1885.0625   -2047.5297  -0.22458493    1925.7984          6.8          6.8 
    9989    438.14656    53198.801   -3889.0571    -5.077098   -1884.9874   -2047.3954  -0.22458942    1925.7068          6.8          6.8 
    9990     434.4084    53599.378   -3889.4511   -5.0776124   -1884.7307   -2047.6765  -0.22458163    1925.6012          6.8          6.8 
    9991    430.21138    53587.245   -3889.7788   -5.0780402   -1884.6259   -2047.6939  -0.22457515    1925.5305          6.8          6.8 
    9992    428.39357    53270.072   -3890.1008   -5.0784606   -1884.8412   -2047.6209  -0.22456878    1925.6641          6.8          6.8 
    9993     425.4095    53155.393   -3890.5301    -5.079021   -1884.8313    -2047.765  -0.22456029     1925.697          6.8          6.8 
    9994    421.73965    52981.254   -3890.7988   -5.0793717    -1884.872     -2047.63  -0.22455497    1925.6879          6.8          6.8 
    9995    421.06203    53405.143   -3891.1256   -5.0797984   -1885.0021   -2047.7598  -0.22454851    1925.8174          6.8          6.8 
    9996    419.90677    54154.544   -3891.4992   -5.0802861   -1884.9793    -2048.042  -0.22454112    1925.8801          6.8          6.8 
    9997     418.3014    54201.508   -3891.7431   -5.0806045    -1884.947   -2048.1594  -0.22453629    1925.8897          6.8          6.8 
    9998    416.62249    54043.493   -3892.1711   -5.0811633    -1884.963   -2048.4054  -0.22452783      1925.97          6.8          6.8 
    9999     415.5017    53863.803   -3892.4324   -5.0815044   -1884.8675   -2048.6514  -0.22452266    1925.9705          6.8          6.8 
   10000    416.67801    54112.115   -3892.7774   -5.0819548   -1884.6812    -2049.299  -0.22451584    1926.0189          6.8          6.8 
WARNING: Bond/angle/dihedral extent > half of periodic box length (src/domain.cpp:906)
Loop time of 155.976 on 1 procs for 10000 steps with 766 atoms

Performance: 5.539 ns/day, 4.333 hours/ns, 64.112 timesteps/s
99.8% CPU use with 1 MPI tasks x no OpenMP threads

MPI task timing breakdown:
Section |  min time  |  avg time  |  max time  |%varavg| %total
---------------------------------------------------------------
Pair    | 152.7      | 152.7      | 152.7      |   0.0 | 97.90
Bond    | 0.0059952  | 0.0059952  | 0.0059952  |   0.0 |  0.00
Neigh   | 1.261      | 1.261      | 1.261      |   0.0 |  0.81
Comm    | 0.17237    | 0.17237    | 0.17237    |   0.0 |  0.11
Output  | 1.499      | 1.499      | 1.499      |   0.0 |  0.96
Modify  | 0.24318    | 0.24318    | 0.24318    |   0.0 |  0.16
Other   |            | 0.09708    |            |       |  0.06

Nlocal:    766 ave 766 max 766 min
Histogram: 1 0 0 0 0 0 0 0 0 0
Nghost:    2946 ave 2946 max 2946 min
Histogram: 1 0 0 0 0 0 0 0 0 0
Neighs:    38782 ave 38782 max 38782 min
Histogram: 1 0 0 0 0 0 0 0 0 0
FullNghs:  77564 ave 77564 max 77564 min
Histogram: 1 0 0 0 0 0 0 0 0 0

Total # of neighbors = 77564
Ave neighs/atom = 101.258
Ave special neighs/atom = 34.5666
Neighbor list builds = 196
Dangerous builds = 0

#--------------------Print flag order to show simulation is successful
print                "SIMULATION IS SUCCESSFUL DONE"
SIMULATION IS SUCCESSFUL DONE
Total wall time: 0:02:41
