ITEM: TIMESTEP
0
ITEM: NUMBER OF ATOMS
128
ITEM: BOX BOUNDS pp pp pp
-7.7749999999999997e-01 1.1522500000000001e+01
-7.7749999999999997e-01 1.1522500000000001e+01
-7.7749999999999997e-01 1.1522500000000001e+01
ITEM: ATOMS id type xs ys zs
1 1 0.0625 0.0625 0.0625
2 1 0.0625 0.0625 0.3125
5 1 0.0625 0.3125 0.0625
6 1 0.0625 0.3125 0.3125
17 1 0.3125 0.0625 0.0625
18 1 0.3125 0.0625 0.3125
21 1 0.3125 0.3125 0.0625
22 1 0.3125 0.3125 0.3125
65 2 0.1875 0.1875 0.1875
33 1 0.5625 0.0625 0.0625
34 1 0.5625 0.0625 0.3125
37 1 0.5625 0.3125 0.0625
38 1 0.5625 0.3125 0.3125
81 2 0.4375 0.1875 0.1875
49 1 0.8125 0.0625 0.0625
50 1 0.8125 0.0625 0.3125
53 1 0.8125 0.3125 0.0625
54 1 0.8125 0.3125 0.3125
97 2 0.6875 0.1875 0.1875
113 2 0.9375 0.1875 0.1875
9 1 0.0625 0.5625 0.0625
10 1 0.0625 0.5625 0.3125
25 1 0.3125 0.5625 0.0625
26 1 0.3125 0.5625 0.3125
69 2 0.1875 0.4375 0.1875
41 1 0.5625 0.5625 0.0625
42 1 0.5625 0.5625 0.3125
85 2 0.4375 0.4375 0.1875
57 1 0.8125 0.5625 0.0625
58 1 0.8125 0.5625 0.3125
101 2 0.6875 0.4375 0.1875
117 2 0.9375 0.4375 0.1875
13 1 0.0625 0.8125 0.0625
14 1 0.0625 0.8125 0.3125
29 1 0.3125 0.8125 0.0625
30 1 0.3125 0.8125 0.3125
73 2 0.1875 0.6875 0.1875
77 2 0.1875 0.9375 0.1875
45 1 0.5625 0.8125 0.0625
46 1 0.5625 0.8125 0.3125
89 2 0.4375 0.6875 0.1875
93 2 0.4375 0.9375 0.1875
61 1 0.8125 0.8125 0.0625
62 1 0.8125 0.8125 0.3125
105 2 0.6875 0.6875 0.1875
109 2 0.6875 0.9375 0.1875
121 2 0.9375 0.6875 0.1875
125 2 0.9375 0.9375 0.1875
3 1 0.0625 0.0625 0.5625
7 1 0.0625 0.3125 0.5625
19 1 0.3125 0.0625 0.5625
23 1 0.3125 0.3125 0.5625
66 2 0.1875 0.1875 0.4375
35 1 0.5625 0.0625 0.5625
39 1 0.5625 0.3125 0.5625
82 2 0.4375 0.1875 0.4375
51 1 0.8125 0.0625 0.5625
55 1 0.8125 0.3125 0.5625
98 2 0.6875 0.1875 0.4375
114 2 0.9375 0.1875 0.4375
11 1 0.0625 0.5625 0.5625
27 1 0.3125 0.5625 0.5625
70 2 0.1875 0.4375 0.4375
43 1 0.5625 0.5625 0.5625
86 2 0.4375 0.4375 0.4375
59 1 0.8125 0.5625 0.5625
102 2 0.6875 0.4375 0.4375
118 2 0.9375 0.4375 0.4375
15 1 0.0625 0.8125 0.5625
31 1 0.3125 0.8125 0.5625
74 2 0.1875 0.6875 0.4375
78 2 0.1875 0.9375 0.4375
47 1 0.5625 0.8125 0.5625
90 2 0.4375 0.6875 0.4375
94 2 0.4375 0.9375 0.4375
63 1 0.8125 0.8125 0.5625
106 2 0.6875 0.6875 0.4375
110 2 0.6875 0.9375 0.4375
122 2 0.9375 0.6875 0.4375
126 2 0.9375 0.9375 0.4375
4 1 0.0625 0.0625 0.8125
8 1 0.0625 0.3125 0.8125
20 1 0.3125 0.0625 0.8125
24 1 0.3125 0.3125 0.8125
67 2 0.1875 0.1875 0.6875
68 2 0.1875 0.1875 0.9375
36 1 0.5625 0.0625 0.8125
40 1 0.5625 0.3125 0.8125
83 2 0.4375 0.1875 0.6875
84 2 0.4375 0.1875 0.9375
52 1 0.8125 0.0625 0.8125
56 1 0.8125 0.3125 0.8125
99 2 0.6875 0.1875 0.6875
100 2 0.6875 0.1875 0.9375
115 2 0.9375 0.1875 0.6875
116 2 0.9375 0.1875 0.9375
12 1 0.0625 0.5625 0.8125
28 1 0.3125 0.5625 0.8125
71 2 0.1875 0.4375 0.6875
72 2 0.1875 0.4375 0.9375
44 1 0.5625 0.5625 0.8125
87 2 0.4375 0.4375 0.6875
88 2 0.4375 0.4375 0.9375
60 1 0.8125 0.5625 0.8125
103 2 0.6875 0.4375 0.6875
104 2 0.6875 0.4375 0.9375
119 2 0.9375 0.4375 0.6875
120 2 0.9375 0.4375 0.9375
16 1 0.0625 0.8125 0.8125
32 1 0.3125 0.8125 0.8125
75 2 0.1875 0.6875 0.6875
76 2 0.1875 0.6875 0.9375
79 2 0.1875 0.9375 0.6875
80 2 0.1875 0.9375 0.9375
48 1 0.5625 0.8125 0.8125
91 2 0.4375 0.6875 0.6875
92 2 0.4375 0.6875 0.9375
95 2 0.4375 0.9375 0.6875
96 2 0.4375 0.9375 0.9375
64 1 0.8125 0.8125 0.8125
107 2 0.6875 0.6875 0.6875
108 2 0.6875 0.6875 0.9375
111 2 0.6875 0.9375 0.6875
112 2 0.6875 0.9375 0.9375
123 2 0.9375 0.6875 0.6875
124 2 0.9375 0.6875 0.9375
127 2 0.9375 0.9375 0.6875
128 2 0.9375 0.9375 0.9375
