ITEM: TIMESTEP
0
ITEM: NUMBER OF ATOMS
312
ITEM: BOX BOUNDS pp pp pp
-4.9725650000000003e+00 1.4827434000000000e+01
-4.9725650000000003e+00 1.4827434000000000e+01
-2.6646452000000000e+01 7.9153550999999993e+01
ITEM: ATOMS id type xs ys zs
1 1 0.25114 0.25114 0.251857
2 1 0.25114 0.25114 0.501762
25 1 0.333877 0.292508 0.316065
26 1 0.333877 0.292508 0.56597
33 1 0.334395 0.292768 0.270951
34 1 0.334395 0.292768 0.520856
65 1 0.375764 0.251399 0.399366
66 1 0.375764 0.251399 0.649272
73 1 0.375764 0.375505 0.399366
74 1 0.375764 0.375505 0.649272
89 1 0.251399 0.375764 0.354253
90 1 0.251399 0.375764 0.604158
105 1 0.375505 0.375764 0.354253
106 1 0.375505 0.375764 0.604158
121 1 0.292768 0.334395 0.482668
122 1 0.292768 0.334395 0.732574
153 1 0.292508 0.333877 0.437554
154 1 0.292508 0.333877 0.68746
169 2 0.25114 0.25114 0.293366
170 2 0.25114 0.25114 0.543272
233 2 0.25114 0.25114 0.338683
234 2 0.25114 0.25114 0.588589
241 2 0.25114 0.25114 0.414936
242 2 0.25114 0.25114 0.664841
249 2 0.25114 0.25114 0.364407
250 2 0.25114 0.25114 0.614312
257 2 0.25114 0.25114 0.389212
258 2 0.25114 0.25114 0.639118
273 2 0.25114 0.25114 0.460253
274 2 0.25114 0.25114 0.710158
5 1 0.50013 0.25114 0.251857
6 1 0.50013 0.25114 0.501762
17 1 0.458761 0.292508 0.316065
18 1 0.458761 0.292508 0.56597
29 1 0.582867 0.292508 0.316065
30 1 0.582867 0.292508 0.56597
37 1 0.583385 0.292768 0.270951
38 1 0.583385 0.292768 0.520856
49 1 0.458502 0.292768 0.270951
50 1 0.458502 0.292768 0.520856
57 1 0.417133 0.334136 0.335159
58 1 0.417133 0.334136 0.585064
81 1 0.49987 0.375505 0.399366
82 1 0.49987 0.375505 0.649272
93 1 0.500389 0.375764 0.354253
94 1 0.500389 0.375764 0.604158
125 1 0.541757 0.334395 0.482668
126 1 0.541757 0.334395 0.732574
157 1 0.541498 0.333877 0.437554
158 1 0.541498 0.333877 0.68746
173 2 0.50013 0.25114 0.293366
174 2 0.50013 0.25114 0.543272
177 2 0.417133 0.334136 0.293649
178 2 0.417133 0.334136 0.543555
217 2 0.417133 0.334136 0.376668
218 2 0.417133 0.334136 0.626573
237 2 0.50013 0.25114 0.338683
238 2 0.50013 0.25114 0.588589
245 2 0.50013 0.25114 0.414936
246 2 0.50013 0.25114 0.664841
253 2 0.50013 0.25114 0.364407
254 2 0.50013 0.25114 0.614312
261 2 0.50013 0.25114 0.389212
262 2 0.50013 0.25114 0.639118
277 2 0.50013 0.25114 0.460253
278 2 0.50013 0.25114 0.710158
281 2 0.417133 0.334136 0.421985
282 2 0.417133 0.334136 0.671891
289 2 0.417133 0.334136 0.498238
290 2 0.417133 0.334136 0.748143
297 2 0.417133 0.334136 0.447709
298 2 0.417133 0.334136 0.697614
305 2 0.417133 0.334136 0.472514
306 2 0.417133 0.334136 0.72242
21 1 0.707751 0.292508 0.316065
22 1 0.707751 0.292508 0.56597
53 1 0.707492 0.292768 0.270951
54 1 0.707492 0.292768 0.520856
61 1 0.666123 0.334136 0.335159
62 1 0.666123 0.334136 0.585064
69 1 0.624754 0.251399 0.399366
70 1 0.624754 0.251399 0.649272
77 1 0.624754 0.375505 0.399366
78 1 0.624754 0.375505 0.649272
85 1 0.74886 0.375505 0.399366
86 1 0.74886 0.375505 0.649272
109 1 0.624495 0.375764 0.354253
110 1 0.624495 0.375764 0.604158
181 2 0.666123 0.334136 0.293649
182 2 0.666123 0.334136 0.543555
221 2 0.666123 0.334136 0.376668
222 2 0.666123 0.334136 0.626573
285 2 0.666123 0.334136 0.421985
286 2 0.666123 0.334136 0.671891
293 2 0.666123 0.334136 0.498238
294 2 0.666123 0.334136 0.748143
301 2 0.666123 0.334136 0.447709
302 2 0.666123 0.334136 0.697614
309 2 0.666123 0.334136 0.472514
310 2 0.666123 0.334136 0.72242
3 1 0.25114 0.50013 0.251857
4 1 0.25114 0.50013 0.501762
27 1 0.333877 0.541498 0.316065
28 1 0.333877 0.541498 0.56597
35 1 0.334395 0.541757 0.270951
36 1 0.334395 0.541757 0.520856
67 1 0.375764 0.500389 0.399366
68 1 0.375764 0.500389 0.649272
97 1 0.375505 0.49987 0.354253
98 1 0.375505 0.49987 0.604158
113 1 0.334136 0.417133 0.41846
114 1 0.334136 0.417133 0.668366
123 1 0.292768 0.583385 0.482668
124 1 0.292768 0.583385 0.732574
129 1 0.292768 0.458502 0.482668
130 1 0.292768 0.458502 0.732574
155 1 0.292508 0.582867 0.437554
156 1 0.292508 0.582867 0.68746
161 1 0.292508 0.458761 0.437554
162 1 0.292508 0.458761 0.68746
171 2 0.25114 0.50013 0.293366
172 2 0.25114 0.50013 0.543272
185 2 0.334136 0.417133 0.255381
186 2 0.334136 0.417133 0.505287
193 2 0.334136 0.417133 0.331634
194 2 0.334136 0.417133 0.58154
201 2 0.334136 0.417133 0.281105
202 2 0.334136 0.417133 0.53101
209 2 0.334136 0.417133 0.305911
210 2 0.334136 0.417133 0.555816
225 2 0.334136 0.417133 0.376951
226 2 0.334136 0.417133 0.626857
235 2 0.25114 0.50013 0.338683
236 2 0.25114 0.50013 0.588589
243 2 0.25114 0.50013 0.414936
244 2 0.25114 0.50013 0.664841
251 2 0.25114 0.50013 0.364407
252 2 0.25114 0.50013 0.614312
259 2 0.25114 0.50013 0.389212
260 2 0.25114 0.50013 0.639118
265 2 0.334136 0.417133 0.45997
266 2 0.334136 0.417133 0.709875
275 2 0.25114 0.50013 0.460253
276 2 0.25114 0.50013 0.710158
7 1 0.50013 0.50013 0.251857
8 1 0.50013 0.50013 0.501762
9 1 0.458761 0.417392 0.316065
10 1 0.458761 0.417392 0.56597
19 1 0.458761 0.541498 0.316065
20 1 0.458761 0.541498 0.56597
31 1 0.582867 0.541498 0.316065
32 1 0.582867 0.541498 0.56597
39 1 0.583385 0.541757 0.270951
40 1 0.583385 0.541757 0.520856
41 1 0.458502 0.416874 0.270951
42 1 0.458502 0.416874 0.520856
51 1 0.458502 0.541757 0.270951
52 1 0.458502 0.541757 0.520856
59 1 0.417133 0.583126 0.335159
60 1 0.417133 0.583126 0.585064
117 1 0.583126 0.417133 0.41846
118 1 0.583126 0.417133 0.668366
127 1 0.541757 0.583385 0.482668
128 1 0.541757 0.583385 0.732574
133 1 0.541757 0.458502 0.482668
134 1 0.541757 0.458502 0.732574
137 1 0.416874 0.458502 0.482668
138 1 0.416874 0.458502 0.732574
145 1 0.417392 0.458761 0.437554
146 1 0.417392 0.458761 0.68746
159 1 0.541498 0.582867 0.437554
160 1 0.541498 0.582867 0.68746
165 1 0.541498 0.458761 0.437554
166 1 0.541498 0.458761 0.68746
175 2 0.50013 0.50013 0.293366
176 2 0.50013 0.50013 0.543272
179 2 0.417133 0.583126 0.293649
180 2 0.417133 0.583126 0.543555
189 2 0.583126 0.417133 0.255381
190 2 0.583126 0.417133 0.505287
197 2 0.583126 0.417133 0.331634
198 2 0.583126 0.417133 0.58154
205 2 0.583126 0.417133 0.281105
206 2 0.583126 0.417133 0.53101
213 2 0.583126 0.417133 0.305911
214 2 0.583126 0.417133 0.555816
219 2 0.417133 0.583126 0.376668
220 2 0.417133 0.583126 0.626573
229 2 0.583126 0.417133 0.376951
230 2 0.583126 0.417133 0.626857
239 2 0.50013 0.50013 0.338683
240 2 0.50013 0.50013 0.588589
247 2 0.50013 0.50013 0.414936
248 2 0.50013 0.50013 0.664841
255 2 0.50013 0.50013 0.364407
256 2 0.50013 0.50013 0.614312
263 2 0.50013 0.50013 0.389212
264 2 0.50013 0.50013 0.639118
269 2 0.583126 0.417133 0.45997
270 2 0.583126 0.417133 0.709875
279 2 0.50013 0.50013 0.460253
280 2 0.50013 0.50013 0.710158
283 2 0.417133 0.583126 0.421985
284 2 0.417133 0.583126 0.671891
291 2 0.417133 0.583126 0.498238
292 2 0.417133 0.583126 0.748143
299 2 0.417133 0.583126 0.447709
300 2 0.417133 0.583126 0.697614
307 2 0.417133 0.583126 0.472514
308 2 0.417133 0.583126 0.72242
13 1 0.707751 0.417392 0.316065
14 1 0.707751 0.417392 0.56597
23 1 0.707751 0.541498 0.316065
24 1 0.707751 0.541498 0.56597
45 1 0.707492 0.416874 0.270951
46 1 0.707492 0.416874 0.520856
55 1 0.707492 0.541757 0.270951
56 1 0.707492 0.541757 0.520856
63 1 0.666123 0.583126 0.335159
64 1 0.666123 0.583126 0.585064
71 1 0.624754 0.500389 0.399366
72 1 0.624754 0.500389 0.649272
101 1 0.624495 0.49987 0.354253
102 1 0.624495 0.49987 0.604158
141 1 0.665864 0.458502 0.482668
142 1 0.665864 0.458502 0.732574
149 1 0.666382 0.458761 0.437554
150 1 0.666382 0.458761 0.68746
183 2 0.666123 0.583126 0.293649
184 2 0.666123 0.583126 0.543555
223 2 0.666123 0.583126 0.376668
224 2 0.666123 0.583126 0.626573
287 2 0.666123 0.583126 0.421985
288 2 0.666123 0.583126 0.671891
295 2 0.666123 0.583126 0.498238
296 2 0.666123 0.583126 0.748143
303 2 0.666123 0.583126 0.447709
304 2 0.666123 0.583126 0.697614
311 2 0.666123 0.583126 0.472514
312 2 0.666123 0.583126 0.72242
75 1 0.375764 0.624495 0.399366
76 1 0.375764 0.624495 0.649272
91 1 0.251399 0.624754 0.354253
92 1 0.251399 0.624754 0.604158
99 1 0.375505 0.74886 0.354253
100 1 0.375505 0.74886 0.604158
107 1 0.375505 0.624754 0.354253
108 1 0.375505 0.624754 0.604158
115 1 0.334136 0.666123 0.41846
116 1 0.334136 0.666123 0.668366
131 1 0.292768 0.707492 0.482668
132 1 0.292768 0.707492 0.732574
163 1 0.292508 0.707751 0.437554
164 1 0.292508 0.707751 0.68746
187 2 0.334136 0.666123 0.255381
188 2 0.334136 0.666123 0.505287
195 2 0.334136 0.666123 0.331634
196 2 0.334136 0.666123 0.58154
203 2 0.334136 0.666123 0.281105
204 2 0.334136 0.666123 0.53101
211 2 0.334136 0.666123 0.305911
212 2 0.334136 0.666123 0.555816
227 2 0.334136 0.666123 0.376951
228 2 0.334136 0.666123 0.626857
267 2 0.334136 0.666123 0.45997
268 2 0.334136 0.666123 0.709875
11 1 0.458761 0.666382 0.316065
12 1 0.458761 0.666382 0.56597
43 1 0.458502 0.665864 0.270951
44 1 0.458502 0.665864 0.520856
83 1 0.49987 0.624495 0.399366
84 1 0.49987 0.624495 0.649272
95 1 0.500389 0.624754 0.354253
96 1 0.500389 0.624754 0.604158
119 1 0.583126 0.666123 0.41846
120 1 0.583126 0.666123 0.668366
135 1 0.541757 0.707492 0.482668
136 1 0.541757 0.707492 0.732574
139 1 0.416874 0.707492 0.482668
140 1 0.416874 0.707492 0.732574
147 1 0.417392 0.707751 0.437554
148 1 0.417392 0.707751 0.68746
167 1 0.541498 0.707751 0.437554
168 1 0.541498 0.707751 0.68746
191 2 0.583126 0.666123 0.255381
192 2 0.583126 0.666123 0.505287
199 2 0.583126 0.666123 0.331634
200 2 0.583126 0.666123 0.58154
207 2 0.583126 0.666123 0.281105
208 2 0.583126 0.666123 0.53101
215 2 0.583126 0.666123 0.305911
216 2 0.583126 0.666123 0.555816
231 2 0.583126 0.666123 0.376951
232 2 0.583126 0.666123 0.626857
271 2 0.583126 0.666123 0.45997
272 2 0.583126 0.666123 0.709875
15 1 0.707751 0.666382 0.316065
16 1 0.707751 0.666382 0.56597
47 1 0.707492 0.665864 0.270951
48 1 0.707492 0.665864 0.520856
79 1 0.624754 0.624495 0.399366
80 1 0.624754 0.624495 0.649272
87 1 0.74886 0.624495 0.399366
88 1 0.74886 0.624495 0.649272
103 1 0.624495 0.74886 0.354253
104 1 0.624495 0.74886 0.604158
111 1 0.624495 0.624754 0.354253
112 1 0.624495 0.624754 0.604158
143 1 0.665864 0.707492 0.482668
144 1 0.665864 0.707492 0.732574
151 1 0.666382 0.707751 0.437554
152 1 0.666382 0.707751 0.68746
ITEM: TIMESTEP
100
ITEM: NUMBER OF ATOMS
312
ITEM: BOX BOUNDS pp pp pp
-4.9725650000000003e+00 1.4827434000000000e+01
-4.9725650000000003e+00 1.4827434000000000e+01
-2.6646452000000000e+01 7.9153550999999993e+01
ITEM: ATOMS id type xs ys zs
1 1 0.282237 0.286087 0.252609
2 1 0.287655 0.324387 0.505733
25 1 0.357937 0.313939 0.316172
26 1 0.360175 0.309598 0.567644
33 1 0.340131 0.294371 0.271444
34 1 0.358007 0.293603 0.52306
65 1 0.421655 0.231075 0.410013
66 1 0.422114 0.231263 0.660358
73 1 0.391767 0.337875 0.400448
74 1 0.390899 0.339094 0.650783
89 1 0.239027 0.410698 0.345691
90 1 0.240059 0.409124 0.596194
105 1 0.355239 0.381718 0.352875
106 1 0.359151 0.378352 0.603619
121 1 0.316111 0.338855 0.483921
122 1 0.330719 0.352757 0.736076
153 1 0.303122 0.361341 0.43742
154 1 0.30529 0.361461 0.690732
169 2 0.295283 0.329315 0.292544
170 2 0.303133 0.309531 0.544807
233 2 0.295344 0.293229 0.33915
234 2 0.296071 0.290583 0.589763
241 2 0.303724 0.287238 0.416411
242 2 0.303583 0.289445 0.667222
249 2 0.350664 0.27075 0.365895
250 2 0.351889 0.270299 0.616422
257 2 0.272076 0.346241 0.390851
258 2 0.272573 0.345461 0.641484
273 2 0.31186 0.305088 0.46014
274 2 0.329816 0.305383 0.714369
5 1 0.50376 0.311899 0.248399
6 1 0.602675 0.210975 0.49984
17 1 0.476965 0.257773 0.311309
18 1 0.477731 0.270848 0.560084
29 1 0.603569 0.261115 0.31108
30 1 0.600017 0.256804 0.562447
37 1 0.559088 0.263746 0.266072
38 1 0.567981 0.258457 0.51814
49 1 0.459875 0.322222 0.271377
50 1 0.473212 0.325657 0.520893
57 1 0.420228 0.287174 0.338048
58 1 0.422156 0.286425 0.588049
81 1 0.493987 0.393387 0.399784
82 1 0.492585 0.397073 0.650452
93 1 0.474483 0.39777 0.344614
94 1 0.47537 0.396755 0.594653
125 1 0.556188 0.279174 0.48448
126 1 0.563783 0.27128 0.733827
157 1 0.552164 0.323401 0.434605
158 1 0.55245 0.320437 0.685255
173 2 0.536929 0.286312 0.290196
174 2 0.556979 0.297854 0.540657
177 2 0.454645 0.344314 0.295643
178 2 0.459548 0.35232 0.543095
217 2 0.403802 0.404781 0.378063
218 2 0.403605 0.404149 0.628282
237 2 0.565204 0.314866 0.332311
238 2 0.567549 0.315727 0.582678
245 2 0.556088 0.248346 0.414736
246 2 0.555608 0.245111 0.665322
253 2 0.499446 0.286251 0.358127
254 2 0.499882 0.286165 0.608522
261 2 0.480211 0.263217 0.388383
262 2 0.483126 0.265027 0.639021
277 2 0.560815 0.273462 0.458198
278 2 0.560512 0.283431 0.708904
281 2 0.437887 0.348785 0.419829
282 2 0.438567 0.346028 0.670444
289 2 0.413346 0.329281 0.501052
290 2 0.408086 0.357925 0.754279
297 2 0.437892 0.358341 0.446609
298 2 0.438474 0.357555 0.697526
305 2 0.445388 0.33256 0.474048
306 2 0.467015 0.360302 0.72751
21 1 0.717905 0.288576 0.310074
22 1 0.709843 0.296764 0.559275
53 1 0.668726 0.292797 0.271175
54 1 0.672455 0.287846 0.527799
61 1 0.679254 0.295309 0.326876
62 1 0.68109 0.29123 0.577143
69 1 0.623952 0.241945 0.395539
70 1 0.624401 0.239873 0.646056
77 1 0.607237 0.354425 0.400455
78 1 0.602617 0.350458 0.650505
85 1 0.713909 0.380157 0.392236
86 1 0.711181 0.378851 0.643214
109 1 0.596541 0.387647 0.354694
110 1 0.596372 0.387602 0.604921
181 2 0.668165 0.349664 0.293169
182 2 0.685394 0.385565 0.543721
221 2 0.614402 0.328014 0.376991
222 2 0.617068 0.326775 0.627103
285 2 0.682237 0.324005 0.414132
286 2 0.679956 0.324634 0.66556
293 2 0.652172 0.320497 0.50393
294 2 0.558101 0.368519 0.750687
301 2 0.671407 0.361436 0.444877
302 2 0.669793 0.36859 0.695747
309 2 0.658225 0.349823 0.474164
310 2 0.639722 0.372928 0.725962
3 1 0.281091 0.565115 0.245622
4 1 0.223177 0.591048 0.504305
27 1 0.339633 0.557508 0.321333
28 1 0.340337 0.557413 0.571159
35 1 0.318732 0.542203 0.265875
36 1 0.299309 0.550617 0.518722
67 1 0.392956 0.467546 0.408787
68 1 0.392697 0.46642 0.658645
97 1 0.393167 0.490878 0.354067
98 1 0.388727 0.490748 0.604218
113 1 0.279689 0.41089 0.414134
114 1 0.280194 0.412205 0.664364
123 1 0.296127 0.564288 0.48792
124 1 0.312784 0.584613 0.738744
129 1 0.297805 0.455314 0.479414
130 1 0.327413 0.472968 0.733017
155 1 0.258294 0.608924 0.44203
156 1 0.263338 0.605525 0.692689
161 1 0.257767 0.482281 0.443611
162 1 0.258174 0.482281 0.694936
171 2 0.288123 0.549031 0.290816
172 2 0.291187 0.556342 0.544496
185 2 0.383961 0.347451 0.251497
186 2 0.312868 0.446677 0.499665
193 2 0.34841 0.429767 0.33322
194 2 0.346793 0.42617 0.58362
201 2 0.378703 0.433839 0.27566
202 2 0.339299 0.426237 0.527518
209 2 0.351511 0.444684 0.306572
210 2 0.354366 0.43953 0.556543
225 2 0.395795 0.411426 0.376477
226 2 0.393531 0.41192 0.626356
235 2 0.244859 0.54251 0.338179
236 2 0.249007 0.541637 0.588702
243 2 0.300177 0.55653 0.421535
244 2 0.300514 0.556425 0.671609
251 2 0.262524 0.490756 0.365386
252 2 0.259293 0.489427 0.615999
259 2 0.280925 0.499263 0.394687
260 2 0.280561 0.499138 0.645008
265 2 0.348506 0.46306 0.45883
266 2 0.347784 0.461049 0.709976
275 2 0.288787 0.55558 0.462905
276 2 0.29447 0.555994 0.714189
7 1 0.483497 0.527261 0.243013
8 1 0.521363 0.512647 0.501589
9 1 0.45834 0.373928 0.321173
10 1 0.457939 0.378421 0.571176
19 1 0.45373 0.50825 0.318709
20 1 0.457669 0.516715 0.567334
31 1 0.579144 0.543834 0.321446
32 1 0.578081 0.54463 0.570733
39 1 0.579288 0.506771 0.256795
40 1 0.547084 0.566929 0.519994
41 1 0.485953 0.42552 0.256546
42 1 0.44294 0.441038 0.511757
51 1 0.457312 0.538406 0.266975
52 1 0.42985 0.56096 0.517328
59 1 0.485286 0.544679 0.340966
60 1 0.483787 0.544041 0.591126
117 1 0.568865 0.375965 0.415322
118 1 0.568191 0.374376 0.665869
127 1 0.551176 0.574584 0.483761
128 1 0.529219 0.602785 0.744989
133 1 0.57629 0.4532 0.485123
134 1 0.550899 0.479635 0.736849
137 1 0.43025 0.460001 0.487969
138 1 0.435242 0.469473 0.745038
145 1 0.36556 0.457669 0.432054
146 1 0.363316 0.455721 0.681422
159 1 0.528049 0.636706 0.423756
160 1 0.528669 0.633725 0.673145
165 1 0.525746 0.446259 0.434847
166 1 0.520547 0.445703 0.68385
175 2 0.461456 0.542496 0.29466
176 2 0.462709 0.526791 0.541894
179 2 0.468451 0.552924 0.295391
180 2 0.464778 0.541438 0.542321
189 2 0.608643 0.370278 0.255303
190 2 0.5518 0.415002 0.491171
197 2 0.604186 0.45296 0.337932
198 2 0.60259 0.455042 0.58791
205 2 0.553778 0.443366 0.278447
206 2 0.567129 0.431466 0.524139
213 2 0.568585 0.430702 0.308704
214 2 0.565622 0.428839 0.558841
219 2 0.385728 0.571827 0.375585
220 2 0.384881 0.570831 0.62584
229 2 0.562821 0.38467 0.378301
230 2 0.562357 0.386413 0.628501
239 2 0.471728 0.5232 0.335168
240 2 0.469275 0.520834 0.584989
247 2 0.502804 0.486748 0.425683
248 2 0.503911 0.481026 0.674454
255 2 0.526326 0.508211 0.362784
256 2 0.525319 0.509184 0.61286
263 2 0.508907 0.523334 0.393995
264 2 0.509652 0.525859 0.644034
269 2 0.550057 0.455718 0.459076
270 2 0.544008 0.46613 0.707076
279 2 0.522698 0.476051 0.460472
280 2 0.523334 0.481582 0.707808
283 2 0.420494 0.610008 0.412058
284 2 0.419909 0.609463 0.661551
291 2 0.411248 0.56777 0.503991
292 2 0.412201 0.592508 0.753288
299 2 0.427803 0.579964 0.443246
300 2 0.426174 0.574991 0.691983
307 2 0.428726 0.583633 0.474853
308 2 0.440702 0.562199 0.726157
13 1 0.692131 0.398022 0.316968
14 1 0.688924 0.399393 0.569114
23 1 0.68272 0.513321 0.311674
24 1 0.683142 0.510644 0.562251
45 1 0.693852 0.404185 0.272056
46 1 0.708788 0.401007 0.520163
55 1 0.666276 0.51571 0.272263
56 1 0.703079 0.521499 0.524116
63 1 0.688068 0.540187 0.333654
64 1 0.690689 0.536161 0.583112
71 1 0.661463 0.45692 0.405168
72 1 0.654309 0.456167 0.655381
101 1 0.664598 0.507241 0.355982
102 1 0.663603 0.508763 0.605771
141 1 0.703093 0.429322 0.491802
142 1 0.66239 0.44737 0.745525
149 1 0.637995 0.44523 0.426426
150 1 0.636821 0.446399 0.677253
183 2 0.625405 0.566551 0.293159
184 2 0.626352 0.55516 0.542482
223 2 0.658904 0.498158 0.381066
224 2 0.658949 0.498318 0.631016
287 2 0.627368 0.565277 0.41823
288 2 0.630484 0.565844 0.66901
295 2 0.646578 0.533029 0.502659
296 2 0.643777 0.568551 0.750192
303 2 0.666492 0.528395 0.444958
304 2 0.67525 0.531576 0.695525
311 2 0.670274 0.524272 0.473478
312 2 0.661285 0.527864 0.723896
75 1 0.374487 0.594118 0.400303
76 1 0.375362 0.594462 0.650398
91 1 0.231776 0.620624 0.356796
92 1 0.232355 0.618396 0.607163
99 1 0.359217 0.705921 0.359301
100 1 0.362838 0.707888 0.610079
107 1 0.34096 0.596704 0.353782
108 1 0.342774 0.599751 0.604165
115 1 0.290591 0.675704 0.425193
116 1 0.290981 0.675146 0.676085
131 1 0.284854 0.669579 0.47719
132 1 0.276391 0.666762 0.725205
163 1 0.285161 0.723721 0.441772
164 1 0.290652 0.720278 0.693695
187 2 0.391234 0.60796 0.249509
188 2 0.303835 0.678869 0.5011
195 2 0.319244 0.671281 0.336577
196 2 0.32083 0.671593 0.58728
203 2 0.37586 0.646705 0.276771
204 2 0.368563 0.655926 0.528454
211 2 0.36668 0.666802 0.307957
212 2 0.372358 0.67004 0.558489
227 2 0.322077 0.625582 0.378141
228 2 0.32283 0.62462 0.628452
267 2 0.362621 0.694249 0.458208
268 2 0.373519 0.684528 0.709521
11 1 0.43997 0.639666 0.328151
12 1 0.44174 0.639472 0.578428
43 1 0.446226 0.714277 0.260192
44 1 0.430617 0.702798 0.507988
83 1 0.522857 0.659178 0.40092
84 1 0.522076 0.661222 0.65067
95 1 0.455325 0.648145 0.351151
96 1 0.455764 0.649447 0.601166
119 1 0.627744 0.660093 0.412535
120 1 0.628107 0.66064 0.662381
135 1 0.519954 0.691579 0.479722
136 1 0.504724 0.682517 0.729303
139 1 0.395031 0.708487 0.483043
140 1 0.385677 0.68023 0.734783
147 1 0.3935 0.70359 0.433929
148 1 0.39443 0.703119 0.684717
167 1 0.505608 0.698514 0.441648
168 1 0.507961 0.698552 0.690625
191 2 0.537504 0.628464 0.252593
192 2 0.549562 0.656351 0.502644
199 2 0.564481 0.647807 0.336218
200 2 0.567529 0.643494 0.586992
207 2 0.530017 0.673991 0.279065
208 2 0.527322 0.679084 0.531261
215 2 0.534968 0.677577 0.308853
216 2 0.53335 0.661833 0.559532
231 2 0.506318 0.654576 0.375585
232 2 0.504181 0.655705 0.625545
271 2 0.561177 0.63053 0.459402
272 2 0.555317 0.632547 0.70889
15 1 0.653151 0.62935 0.317127
16 1 0.655364 0.628619 0.56805
47 1 0.633688 0.624497 0.268751
48 1 0.646592 0.628805 0.520735
79 1 0.611111 0.61699 0.388037
80 1 0.610585 0.617855 0.637948
87 1 0.698543 0.576272 0.400024
88 1 0.696752 0.575705 0.650131
103 1 0.567124 0.69972 0.357242
104 1 0.566132 0.701656 0.607387
111 1 0.621854 0.604845 0.366522
112 1 0.620709 0.605618 0.6165
143 1 0.63903 0.647492 0.483029
144 1 0.620179 0.64784 0.731835
151 1 0.625931 0.653288 0.436115
152 1 0.626072 0.65584 0.686052
ITEM: TIMESTEP
200
ITEM: NUMBER OF ATOMS
312
ITEM: BOX BOUNDS pp pp pp
-4.9725650000000003e+00 1.4827434000000000e+01
-4.9725650000000003e+00 1.4827434000000000e+01
-2.6646452000000000e+01 7.9153550999999993e+01
ITEM: ATOMS id type xs ys zs
1 1 0.284001 0.284948 0.252805
2 1 0.287861 0.333731 0.508008
25 1 0.355809 0.315312 0.31618
26 1 0.357057 0.309057 0.568712
33 1 0.342568 0.294981 0.271541
34 1 0.367706 0.290595 0.523813
65 1 0.421643 0.228837 0.409878
66 1 0.420479 0.228297 0.660162
73 1 0.392199 0.3317 0.399968
74 1 0.392428 0.332171 0.650761
89 1 0.235173 0.410821 0.345256
90 1 0.235671 0.408413 0.595986
105 1 0.34511 0.38787 0.353646
106 1 0.348976 0.384682 0.60396
121 1 0.314298 0.338373 0.484627
122 1 0.328598 0.355974 0.73572
153 1 0.304815 0.359923 0.437299
154 1 0.309039 0.360661 0.692196
169 2 0.295293 0.330323 0.29254
170 2 0.30599 0.306038 0.545373
233 2 0.293156 0.296413 0.338714
234 2 0.294296 0.291331 0.590218
241 2 0.303427 0.286828 0.416058
242 2 0.303182 0.291728 0.667506
249 2 0.354167 0.274215 0.365
250 2 0.354066 0.272539 0.616387
257 2 0.273604 0.346132 0.390586
258 2 0.273833 0.344765 0.641264
273 2 0.309219 0.306362 0.460625
274 2 0.331179 0.301956 0.714578
5 1 0.502289 0.312634 0.247732
6 1 0.603772 0.203957 0.499359
17 1 0.479378 0.255512 0.310288
18 1 0.477393 0.273302 0.559152
29 1 0.605184 0.260148 0.310716
30 1 0.597877 0.254067 0.562488
37 1 0.554566 0.25947 0.265178
38 1 0.572184 0.245943 0.518996
49 1 0.460822 0.323887 0.270967
50 1 0.484682 0.322894 0.520251
57 1 0.417461 0.284554 0.339192
58 1 0.420224 0.283987 0.589252
81 1 0.489764 0.395947 0.400118
82 1 0.488705 0.400113 0.651052
93 1 0.472516 0.396106 0.344499
94 1 0.471668 0.396456 0.594798
125 1 0.561133 0.279139 0.484274
126 1 0.565765 0.272962 0.734059
157 1 0.554852 0.316802 0.434328
158 1 0.556223 0.317897 0.684899
173 2 0.541587 0.285469 0.289274
174 2 0.565351 0.300505 0.540947
177 2 0.454722 0.344079 0.295387
178 2 0.455672 0.35319 0.541899
217 2 0.409228 0.406052 0.378451
218 2 0.408394 0.406249 0.628911
237 2 0.56701 0.316187 0.332004
238 2 0.569727 0.320539 0.582265
245 2 0.554338 0.243581 0.414434
246 2 0.55515 0.240488 0.665331
253 2 0.503917 0.286114 0.358197
254 2 0.503643 0.287479 0.608542
261 2 0.485667 0.257603 0.388072
262 2 0.48998 0.260776 0.639011
277 2 0.566388 0.276073 0.458379
278 2 0.563571 0.280263 0.709376
281 2 0.438135 0.346865 0.419905
282 2 0.439569 0.344105 0.670458
289 2 0.410894 0.329496 0.501293
290 2 0.405446 0.356039 0.754212
297 2 0.436097 0.353185 0.446709
298 2 0.438891 0.352615 0.697659
305 2 0.446501 0.328662 0.473977
306 2 0.466135 0.357689 0.727525
21 1 0.719514 0.290022 0.310284
22 1 0.701402 0.304534 0.556781
53 1 0.659928 0.289206 0.27264
54 1 0.673961 0.298686 0.527408
61 1 0.680555 0.294115 0.3264
62 1 0.681053 0.285712 0.576838
69 1 0.621377 0.243272 0.395027
70 1 0.623944 0.238689 0.645689
77 1 0.60289 0.3541 0.400879
78 1 0.596627 0.347723 0.650594
85 1 0.711063 0.377532 0.392602
86 1 0.707371 0.37544 0.643539
109 1 0.595751 0.389001 0.354173
110 1 0.595304 0.391328 0.604822
181 2 0.668429 0.35297 0.293746
182 2 0.689961 0.406019 0.543118
221 2 0.613875 0.335802 0.377145
222 2 0.618625 0.330816 0.626961
285 2 0.678522 0.323499 0.414658
286 2 0.676869 0.324577 0.66614
293 2 0.645561 0.315406 0.503745
294 2 0.555685 0.370308 0.750589
301 2 0.670299 0.367508 0.444317
302 2 0.671321 0.36916 0.695433
309 2 0.658137 0.356367 0.475099
310 2 0.640109 0.373567 0.726133
3 1 0.282767 0.566566 0.245305
4 1 0.223898 0.593101 0.504522
27 1 0.33873 0.557213 0.321699
28 1 0.341017 0.555883 0.571435
35 1 0.321372 0.542842 0.265416
36 1 0.300339 0.549869 0.518306
67 1 0.393485 0.467603 0.408619
68 1 0.391334 0.46655 0.658564
97 1 0.399442 0.489668 0.354275
98 1 0.39638 0.489661 0.604109
113 1 0.281847 0.4108 0.413891
114 1 0.281373 0.414563 0.663436
123 1 0.294778 0.566784 0.487783
124 1 0.310818 0.5869 0.738584
129 1 0.297886 0.456183 0.479435
130 1 0.330762 0.475186 0.733396
155 1 0.25881 0.608622 0.441921
156 1 0.262898 0.603832 0.692397
161 1 0.258682 0.482454 0.443695
162 1 0.258137 0.481879 0.695247
171 2 0.288411 0.549016 0.290255
172 2 0.291109 0.555023 0.544145
185 2 0.383059 0.348949 0.251192
186 2 0.314298 0.449882 0.498831
193 2 0.349501 0.43179 0.333644
194 2 0.345926 0.426699 0.583976
201 2 0.377611 0.433779 0.275419
202 2 0.331211 0.422754 0.526922
209 2 0.350312 0.444296 0.306624
210 2 0.352577 0.437031 0.556922
225 2 0.39977 0.41446 0.376594
226 2 0.398317 0.414585 0.626931
235 2 0.241288 0.54123 0.338248
236 2 0.243814 0.541939 0.58831
243 2 0.301452 0.557232 0.421421
244 2 0.300063 0.556424 0.671288
251 2 0.268109 0.487782 0.365188
252 2 0.267588 0.488019 0.61522
259 2 0.284135 0.498677 0.394591
260 2 0.282451 0.498861 0.644386
265 2 0.348501 0.461012 0.458867
266 2 0.348657 0.457133 0.710147
275 2 0.289178 0.558002 0.462875
276 2 0.297782 0.558168 0.713999
7 1 0.483082 0.526951 0.242716
8 1 0.520565 0.513953 0.501487
9 1 0.458018 0.370053 0.321124
10 1 0.456584 0.375666 0.571211
19 1 0.454142 0.507504 0.318911
20 1 0.457622 0.514404 0.567355
31 1 0.578801 0.545762 0.321586
32 1 0.57949 0.54436 0.570257
39 1 0.578749 0.502376 0.256144
40 1 0.542261 0.569116 0.519938
41 1 0.48498 0.425605 0.256361
42 1 0.443086 0.440539 0.511291
51 1 0.457357 0.539441 0.266795
52 1 0.424567 0.555375 0.517725
59 1 0.485875 0.544658 0.341122
60 1 0.482565 0.544518 0.590796
117 1 0.567499 0.372506 0.414907
118 1 0.569123 0.371073 0.665255
127 1 0.550831 0.573239 0.483689
128 1 0.526587 0.605778 0.744849
133 1 0.570358 0.453545 0.485421
134 1 0.552777 0.482256 0.737012
137 1 0.429453 0.461168 0.487598
138 1 0.442047 0.46812 0.746355
145 1 0.365605 0.457876 0.431875
146 1 0.360481 0.452845 0.681179
159 1 0.527397 0.637548 0.423843
160 1 0.526617 0.634909 0.673107
165 1 0.524083 0.438394 0.435063
166 1 0.519321 0.442309 0.684128
175 2 0.45926 0.543062 0.294752
176 2 0.460542 0.52844 0.541803
179 2 0.468116 0.554274 0.295563
180 2 0.462233 0.542435 0.542183
189 2 0.607099 0.36698 0.255667
190 2 0.548497 0.408999 0.491748
197 2 0.604756 0.453993 0.337936
198 2 0.602101 0.458505 0.588146
205 2 0.551726 0.444787 0.278408
206 2 0.566923 0.432191 0.524253
213 2 0.566907 0.431756 0.30884
214 2 0.562379 0.429835 0.558642
219 2 0.387755 0.576172 0.375645
220 2 0.386791 0.576215 0.625871
229 2 0.56616 0.384338 0.378439
230 2 0.565269 0.386795 0.628661
239 2 0.472882 0.524265 0.335502
240 2 0.46974 0.520065 0.584673
247 2 0.498586 0.487471 0.424879
248 2 0.500563 0.481897 0.673842
255 2 0.529959 0.510455 0.363041
256 2 0.52765 0.513281 0.612845
263 2 0.511844 0.526225 0.393999
264 2 0.512046 0.528329 0.643891
269 2 0.54536 0.453677 0.459334
270 2 0.541853 0.463973 0.706966
279 2 0.519079 0.472723 0.460654
280 2 0.521115 0.478927 0.707732
283 2 0.41992 0.613432 0.411617
284 2 0.418097 0.612134 0.661099
291 2 0.412928 0.569852 0.50389
292 2 0.410072 0.59244 0.753798
299 2 0.425621 0.58073 0.443033
300 2 0.420967 0.575574 0.69195
307 2 0.428425 0.585044 0.474782
308 2 0.438993 0.560212 0.7268
13 1 0.690657 0.399188 0.317297
14 1 0.683299 0.397877 0.570302
23 1 0.681703 0.514386 0.311625
24 1 0.684284 0.504824 0.5611
45 1 0.693113 0.401299 0.272211
46 1 0.704763 0.406803 0.518066
55 1 0.662801 0.514081 0.271831
56 1 0.707863 0.518343 0.525231
63 1 0.689292 0.540689 0.333357
64 1 0.695642 0.531242 0.582103
71 1 0.660048 0.457741 0.404967
72 1 0.65199 0.454547 0.655293
101 1 0.666651 0.509937 0.355718
102 1 0.665013 0.51309 0.605562
141 1 0.70218 0.426639 0.494026
142 1 0.661682 0.448134 0.745586
149 1 0.632339 0.446254 0.426035
150 1 0.632393 0.446712 0.677031
183 2 0.624584 0.567191 0.292988
184 2 0.624255 0.559555 0.542415
223 2 0.662506 0.499301 0.380932
224 2 0.66123 0.500215 0.630919
287 2 0.626554 0.566528 0.418117
288 2 0.627976 0.565759 0.668457
295 2 0.644818 0.530576 0.503556
296 2 0.640624 0.569398 0.749968
303 2 0.66568 0.527804 0.444789
304 2 0.670378 0.534534 0.695157
311 2 0.667703 0.518665 0.474056
312 2 0.659848 0.530747 0.723544
75 1 0.375569 0.595014 0.400407
76 1 0.375807 0.595107 0.6504
91 1 0.236215 0.623658 0.35677
92 1 0.234236 0.619634 0.607284
99 1 0.350754 0.69874 0.35947
100 1 0.356864 0.701093 0.60983
107 1 0.342077 0.589633 0.353487
108 1 0.341931 0.592279 0.603952
115 1 0.28926 0.676099 0.425209
116 1 0.290272 0.675366 0.67608
131 1 0.287755 0.672487 0.476951
132 1 0.281976 0.672949 0.724458
163 1 0.286365 0.723483 0.442532
164 1 0.296542 0.716105 0.695924
187 2 0.393247 0.609489 0.249265
188 2 0.304686 0.680584 0.500878
195 2 0.315663 0.66958 0.336429
196 2 0.319736 0.669652 0.586809
203 2 0.37627 0.648258 0.276561
204 2 0.368486 0.657151 0.527985
211 2 0.365482 0.666797 0.308099
212 2 0.371929 0.66853 0.558339
227 2 0.322003 0.623775 0.378622
228 2 0.323604 0.624222 0.62877
267 2 0.369067 0.6975 0.458192
268 2 0.389843 0.687828 0.710416
11 1 0.438437 0.640914 0.328628
12 1 0.442304 0.640433 0.578668
43 1 0.449028 0.7144 0.259846
44 1 0.431534 0.706167 0.507861
83 1 0.526971 0.660801 0.401133
84 1 0.524736 0.662414 0.650856
95 1 0.454539 0.646004 0.351793
96 1 0.45537 0.647608 0.601523
119 1 0.630186 0.657335 0.41287
120 1 0.629163 0.658179 0.662567
135 1 0.522043 0.690907 0.479342
136 1 0.497245 0.684909 0.728773
139 1 0.398412 0.708087 0.483278
140 1 0.383786 0.680664 0.735793
147 1 0.392383 0.70488 0.433595
148 1 0.393813 0.702265 0.684579
167 1 0.502455 0.69779 0.442142
168 1 0.504883 0.699159 0.690917