ITEM: TIMESTEP
0
ITEM: NUMBER OF ATOMS
312
ITEM: BOX BOUNDS pp pp pp
-4.9725650000000003e+00 1.4827434000000000e+01
-4.9725650000000003e+00 1.4827434000000000e+01
-2.6646452000000000e+01 7.9153550999999993e+01
ITEM: ATOMS id type xs ys zs
6 1 0.618765 0.197482 0.500764
1 1 0.284597 0.270351 0.256285
2 1 0.280251 0.346619 0.508941
25 1 0.325709 0.342328 0.314775
26 1 0.339458 0.315694 0.571473
33 1 0.342508 0.302717 0.274994
34 1 0.357115 0.282668 0.523507
73 1 0.396228 0.310743 0.395925
74 1 0.396624 0.309513 0.643893
105 1 0.333582 0.386554 0.355192
106 1 0.317836 0.387718 0.608079
121 1 0.320559 0.360401 0.485499
122 1 0.329071 0.373104 0.735063
153 1 0.331711 0.341376 0.436979
154 1 0.306179 0.364379 0.695941
169 2 0.270201 0.368365 0.291156
170 2 0.326413 0.293896 0.547051
233 2 0.300789 0.292908 0.33954
234 2 0.288999 0.294857 0.59328
241 2 0.309963 0.284306 0.413949
242 2 0.311447 0.294965 0.662723
249 2 0.369786 0.275227 0.365656
250 2 0.375357 0.276797 0.617227
257 2 0.27887 0.35021 0.389273
258 2 0.276216 0.354771 0.637565
273 2 0.311925 0.30342 0.462688
274 2 0.336648 0.295407 0.715942
185 2 0.377909 0.337438 0.251875
65 1 0.428985 0.222375 0.408774
66 1 0.428939 0.224106 0.658216
5 1 0.495829 0.305616 0.246674
17 1 0.489456 0.25506 0.306593
18 1 0.486359 0.291666 0.556997
30 1 0.592927 0.242355 0.561611
37 1 0.552384 0.253854 0.264088
49 1 0.460856 0.323131 0.271166
50 1 0.51951 0.315101 0.516782
57 1 0.425782 0.277307 0.341325
58 1 0.417148 0.282749 0.592367
93 1 0.477924 0.394253 0.342617
94 1 0.484776 0.391417 0.595952
125 1 0.57028 0.266405 0.485155
126 1 0.570121 0.272213 0.734516
157 1 0.563707 0.294777 0.434637
158 1 0.563692 0.320129 0.683976
173 2 0.554835 0.289109 0.287354
174 2 0.581034 0.303964 0.540026
177 2 0.423002 0.349953 0.296418
178 2 0.453426 0.352731 0.536138
237 2 0.579484 0.325201 0.331615
238 2 0.576677 0.322103 0.581425
245 2 0.558124 0.237427 0.413039
246 2 0.560585 0.235227 0.66439
253 2 0.519996 0.287384 0.357648
254 2 0.521973 0.282966 0.608078
261 2 0.498289 0.252769 0.386618
262 2 0.508483 0.247306 0.63699
277 2 0.574282 0.263112 0.45977
278 2 0.567755 0.2809 0.709044
281 2 0.443908 0.337651 0.421525
282 2 0.44775 0.336559 0.669708
289 2 0.40354 0.332143 0.503301
290 2 0.40353 0.355463 0.753761
297 2 0.445922 0.329728 0.448806
298 2 0.436042 0.350363 0.697365
305 2 0.452049 0.314122 0.476338
306 2 0.472317 0.353532 0.727825
77 1 0.57699 0.35708 0.401863
78 1 0.584893 0.346485 0.650359
109 1 0.598239 0.399272 0.353471
221 2 0.58937 0.375031 0.37836
294 2 0.554875 0.372947 0.751407
9 1 0.452761 0.346328 0.321098
10 1 0.44797 0.358868 0.574665
117 1 0.565433 0.369237 0.414081
118 1 0.568954 0.366159 0.662332
229 2 0.575984 0.384043 0.378373
230 2 0.563083 0.390299 0.628636
29 1 0.609762 0.270122 0.309167
38 1 0.602639 0.228296 0.52175
21 1 0.722526 0.302333 0.308279
22 1 0.69034 0.296701 0.55168
53 1 0.658075 0.292177 0.27307
54 1 0.69699 0.305575 0.528684
61 1 0.685662 0.278542 0.325705
62 1 0.679722 0.270506 0.574757
69 1 0.631509 0.264844 0.393881
70 1 0.647303 0.249723 0.64669
85 1 0.692519 0.369495 0.392683
86 1 0.704874 0.357674 0.646128
110 1 0.602357 0.394629 0.60458
181 2 0.675928 0.379428 0.29327
222 2 0.63109 0.333714 0.626976
285 2 0.674814 0.327128 0.416632
286 2 0.67863 0.323608 0.668779
293 2 0.640185 0.314946 0.506045
301 2 0.661065 0.370293 0.445574
302 2 0.673891 0.377889 0.696578
309 2 0.659959 0.350167 0.476424
310 2 0.640823 0.372501 0.727038
189 2 0.600962 0.35883 0.254774
13 1 0.683029 0.391652 0.319989
14 1 0.675578 0.382741 0.567904
89 1 0.231804 0.408803 0.345003
90 1 0.218692 0.413948 0.596417
3 1 0.297501 0.581377 0.242353
27 1 0.358078 0.563347 0.327413
28 1 0.307428 0.549446 0.569023
35 1 0.327918 0.545439 0.262175
36 1 0.282619 0.550235 0.520131
67 1 0.386353 0.4796 0.409483
68 1 0.388796 0.479685 0.657061
98 1 0.398879 0.474532 0.602771
113 1 0.281343 0.409487 0.412312
114 1 0.279903 0.415937 0.66046
123 1 0.291279 0.577407 0.487934
129 1 0.305902 0.475025 0.477028
130 1 0.334572 0.500407 0.736702
156 1 0.249977 0.591659 0.692294
161 1 0.255463 0.499405 0.443786
162 1 0.282315 0.483265 0.696687
171 2 0.274677 0.54343 0.284646
172 2 0.283026 0.550858 0.544537
186 2 0.321845 0.467761 0.501775
193 2 0.349643 0.427908 0.333809
194 2 0.328349 0.432523 0.584079
201 2 0.376486 0.436852 0.273621
202 2 0.318063 0.420831 0.528764
209 2 0.323955 0.476997 0.307552
210 2 0.367503 0.432399 0.557652
235 2 0.237837 0.536518 0.337789
236 2 0.226095 0.543891 0.588218
243 2 0.294551 0.56411 0.420074
244 2 0.294697 0.551674 0.670554
251 2 0.270985 0.489717 0.364971
252 2 0.265542 0.50002 0.614803
259 2 0.28679 0.501116 0.393759
260 2 0.282145 0.507892 0.642901
265 2 0.347829 0.446304 0.455744
266 2 0.35267 0.447576 0.714575
275 2 0.27945 0.585021 0.461469
276 2 0.298536 0.578188 0.715129
145 1 0.349901 0.457644 0.430835
146 1 0.357579 0.436759 0.678722
219 2 0.393606 0.579506 0.3746
220 2 0.389909 0.588468 0.623632
292 2 0.39366 0.585147 0.752684
75 1 0.378723 0.597501 0.399899
107 1 0.3478 0.57719 0.35128
108 1 0.346877 0.580076 0.600404
81 1 0.470147 0.404748 0.40241
82 1 0.47638 0.400065 0.649927
217 2 0.416957 0.413549 0.378632
218 2 0.411032 0.424963 0.627914
97 1 0.40752 0.476583 0.354573
225 2 0.409942 0.419718 0.377001
226 2 0.405483 0.428999 0.626422
7 1 0.487519 0.528496 0.241641
8 1 0.516109 0.493375 0.50197
19 1 0.445249 0.481411 0.318412
20 1 0.434127 0.540608 0.567412
31 1 0.555813 0.546072 0.317857
32 1 0.564698 0.545346 0.566951
39 1 0.574958 0.488413 0.254084
40 1 0.526114 0.573667 0.517922
41 1 0.478173 0.420043 0.254861
42 1 0.442234 0.432286 0.514889
51 1 0.458593 0.535446 0.265732
52 1 0.403773 0.541932 0.518651
59 1 0.480064 0.543937 0.341498
60 1 0.483666 0.531388 0.588953
127 1 0.534477 0.576778 0.485846
133 1 0.564911 0.454479 0.485903
134 1 0.554352 0.483217 0.737108
137 1 0.424547 0.447999 0.48777
138 1 0.448071 0.468673 0.747749
165 1 0.535938 0.410206 0.43636
166 1 0.513072 0.440341 0.683931
175 2 0.454875 0.538022 0.294673
176 2 0.455202 0.537313 0.542057
179 2 0.468744 0.548185 0.295883
180 2 0.455616 0.54494 0.542046
190 2 0.545149 0.404518 0.492964
205 2 0.54428 0.440398 0.277545
206 2 0.568318 0.444713 0.524204
213 2 0.55344 0.417325 0.308276
214 2 0.538171 0.421752 0.558253
239 2 0.469473 0.527579 0.336428
240 2 0.47162 0.49731 0.581992
247 2 0.495714 0.484795 0.424918
248 2 0.494717 0.477702 0.673569
255 2 0.539819 0.516372 0.363085
256 2 0.53352 0.517864 0.610941
263 2 0.519757 0.522389 0.394027
264 2 0.511905 0.530947 0.643571
269 2 0.540869 0.446843 0.460111
270 2 0.538509 0.461962 0.706653
279 2 0.513035 0.462132 0.461373
280 2 0.521755 0.473909 0.707366
291 2 0.420543 0.590902 0.501753
299 2 0.41301 0.576794 0.442142
300 2 0.406225 0.558532 0.693027
307 2 0.412542 0.562811 0.473791
308 2 0.446892 0.559657 0.726603
182 2 0.684319 0.420188 0.543051
197 2 0.60994 0.472777 0.335853
198 2 0.619671 0.467173 0.585095
23 1 0.671349 0.506038 0.314544
24 1 0.678584 0.501421 0.563316
45 1 0.68738 0.405072 0.270296
46 1 0.702155 0.414415 0.517803
55 1 0.648909 0.516298 0.270074
56 1 0.695729 0.52486 0.525394
63 1 0.709733 0.543479 0.333535
64 1 0.714932 0.544853 0.583606
71 1 0.650367 0.45583 0.404841
72 1 0.645068 0.453308 0.653719
101 1 0.672204 0.520201 0.355027
102 1 0.668874 0.523587 0.604686
141 1 0.695262 0.428934 0.494648
142 1 0.661983 0.451458 0.745789
149 1 0.632089 0.447741 0.425986
150 1 0.625843 0.443165 0.67643
183 2 0.624196 0.555469 0.293649
184 2 0.618351 0.567874 0.543712
223 2 0.674421 0.507821 0.381259
224 2 0.661387 0.507992 0.630166
287 2 0.619465 0.570198 0.417811
288 2 0.619061 0.565038 0.667262
295 2 0.634505 0.538471 0.502719
296 2 0.637832 0.573312 0.748997
303 2 0.653296 0.531076 0.44481
304 2 0.666465 0.536629 0.693782
311 2 0.662318 0.513209 0.473792
312 2 0.660749 0.527659 0.722867
87 1 0.706012 0.571598 0.401922
88 1 0.700969 0.569046 0.650551
4 1 0.22377 0.609987 0.504789
124 1 0.291579 0.611708 0.738919
155 1 0.245186 0.614799 0.439564
76 1 0.373407 0.600894 0.649593
91 1 0.244372 0.624182 0.356701
92 1 0.245 0.632059 0.605991
99 1 0.347959 0.688565 0.358475
100 1 0.350179 0.691864 0.607354
115 1 0.291739 0.683715 0.424645
116 1 0.280295 0.66752 0.67705
131 1 0.310771 0.682733 0.476256
132 1 0.295936 0.698254 0.723443
163 1 0.304202 0.705598 0.448243
164 1 0.291528 0.689707 0.701567
188 2 0.307257 0.694802 0.500522
195 2 0.300492 0.674413 0.335464
196 2 0.309093 0.664634 0.584435
203 2 0.3819 0.644608 0.275985
204 2 0.359267 0.654658 0.527295
211 2 0.357336 0.647328 0.307957
212 2 0.377174 0.656679 0.558354
227 2 0.323455 0.627159 0.378704
228 2 0.322122 0.634441 0.628078
140 1 0.390701 0.680944 0.736119
147 1 0.397885 0.700742 0.433803
148 1 0.383501 0.689492 0.686404
128 1 0.519901 0.604673 0.745569
159 1 0.520032 0.6398 0.425061
160 1 0.521507 0.635555 0.67436
283 2 0.421313 0.610923 0.411386
284 2 0.418233 0.611672 0.662013
187 2 0.408233 0.617182 0.248454
267 2 0.412387 0.700882 0.460118
268 2 0.410877 0.68858 0.710789
11 1 0.435101 0.656302 0.331533
12 1 0.439784 0.634378 0.581065
43 1 0.465666 0.712422 0.260831
44 1 0.431957 0.723203 0.509732
83 1 0.535139 0.657802 0.402485
84 1 0.528633 0.6603 0.651857
95 1 0.46095 0.64342 0.353917
96 1 0.462218 0.644888 0.603178
135 1 0.531645 0.697539 0.479188
136 1 0.503142 0.683851 0.728909
139 1 0.418214 0.697386 0.485972
167 1 0.507199 0.705813 0.442893
168 1 0.498757 0.704333 0.691665
191 2 0.555055 0.615011 0.255077
192 2 0.555258 0.676375 0.50282
199 2 0.573076 0.635564 0.338421
200 2 0.573675 0.623517 0.588639
207 2 0.534837 0.670862 0.280891
208 2 0.515913 0.685538 0.53156
215 2 0.523158 0.670419 0.311145
216 2 0.533348 0.668788 0.56142
231 2 0.519365 0.658697 0.37717
232 2 0.517414 0.662334 0.626129
271 2 0.55324 0.622119 0.460154
272 2 0.557996 0.630335 0.708059
103 1 0.567143 0.706958 0.357674
104 1 0.565095 0.707487 0.606348
119 1 0.632465 0.651479 0.415106
120 1 0.629313 0.650235 0.663398
15 1 0.650234 0.622189 0.31854
16 1 0.656876 0.620312 0.568298
47 1 0.646731 0.631608 0.272585
48 1 0.634461 0.630912 0.521881
79 1 0.625277 0.620772 0.389061
80 1 0.620289 0.624064 0.638513
111 1 0.633295 0.615373 0.367147
112 1 0.630278 0.618414 0.616481
143 1 0.63679 0.635164 0.483345
144 1 0.617061 0.649782 0.730585
151 1 0.619134 0.652996 0.437607
152 1 0.621165 0.655835 0.685803
ITEM: TIMESTEP
100
ITEM: NUMBER OF ATOMS
312
ITEM: BOX BOUNDS pp pp pp
-4.9725650000000003e+00 1.4827434000000000e+01
-4.9725650000000003e+00 1.4827434000000000e+01
-2.6646452000000000e+01 7.9153550999999993e+01
ITEM: ATOMS id type xs ys zs
6 1 0.623991 0.196497 0.500931
1 1 0.28581 0.267774 0.257402
2 1 0.278268 0.348018 0.508607
25 1 0.321843 0.343439 0.314869
26 1 0.33776 0.319376 0.571868
33 1 0.34276 0.303986 0.275535
34 1 0.348828 0.283947 0.523533
73 1 0.394573 0.307782 0.395167
74 1 0.397802 0.309594 0.643343
105 1 0.330079 0.385942 0.356469
106 1 0.309647 0.384683 0.610227
121 1 0.322763 0.363422 0.485086
122 1 0.32958 0.373603 0.735196
153 1 0.332932 0.338985 0.43755
154 1 0.305099 0.366387 0.69645
169 2 0.26916 0.370289 0.291184
170 2 0.328374 0.293333 0.547424
233 2 0.3013 0.292686 0.339873
234 2 0.289802 0.295727 0.593864
241 2 0.310017 0.286147 0.413681
242 2 0.311515 0.294042 0.661847
249 2 0.371984 0.276365 0.36598
250 2 0.379709 0.279392 0.617487
257 2 0.28099 0.353736 0.388601
258 2 0.277967 0.3602 0.636613
273 2 0.313445 0.302187 0.462761
274 2 0.336933 0.295643 0.716075
185 2 0.377464 0.336157 0.252012
65 1 0.429332 0.222947 0.408647
66 1 0.429842 0.224055 0.657439
5 1 0.495424 0.304566 0.246653
17 1 0.488757 0.259935 0.306546
18 1 0.484009 0.290101 0.556432
30 1 0.592136 0.24247 0.561555
37 1 0.552387 0.254032 0.264072
49 1 0.460562 0.323786 0.271374
50 1 0.523428 0.315316 0.516509
57 1 0.427237 0.278055 0.341544
58 1 0.418572 0.282823 0.592643
93 1 0.479373 0.394762 0.34313
94 1 0.487675 0.39204 0.596331
125 1 0.572559 0.266303 0.485514
126 1 0.569971 0.272402 0.734394
157 1 0.566036 0.293796 0.434933
158 1 0.566384 0.324224 0.683937
173 2 0.555576 0.289439 0.287206
174 2 0.581825 0.303624 0.539991
177 2 0.42121 0.353007 0.296633
178 2 0.453323 0.352164 0.535696
237 2 0.579417 0.32515 0.331629
238 2 0.57724 0.322229 0.581311
245 2 0.55918 0.241068 0.412806
246 2 0.561533 0.238831 0.664124
253 2 0.522837 0.284493 0.357608
254 2 0.523755 0.281967 0.60796
261 2 0.496066 0.251704 0.386416
262 2 0.509375 0.246115 0.636726
277 2 0.575448 0.262725 0.459915
278 2 0.567701 0.281374 0.708933
281 2 0.442348 0.336699 0.421685
282 2 0.445692 0.334995 0.669659
289 2 0.402354 0.332756 0.503497
290 2 0.404199 0.356875 0.753801
297 2 0.4472 0.32869 0.448947
298 2 0.435453 0.350318 0.697378
305 2 0.45302 0.313453 0.476557
306 2 0.472315 0.354182 0.727852
77 1 0.574356 0.3552 0.401063
78 1 0.584179 0.34452 0.64981
109 1 0.598623 0.394956 0.353642
221 2 0.592166 0.379657 0.378295
294 2 0.555414 0.372967 0.751419
9 1 0.451352 0.347662 0.321394
10 1 0.448032 0.360242 0.574527
117 1 0.560007 0.37065 0.417142
118 1 0.559969 0.371604 0.663494
229 2 0.574126 0.377393 0.377582
230 2 0.560704 0.390218 0.628387
29 1 0.609104 0.271242 0.309151
38 1 0.60734 0.227557 0.521911
21 1 0.72202 0.301602 0.307762
22 1 0.690613 0.297123 0.551893
53 1 0.659019 0.294151 0.272821
54 1 0.698847 0.305496 0.528959
61 1 0.685012 0.276566 0.325671
62 1 0.680356 0.271177 0.57441
69 1 0.632541 0.264531 0.393603
70 1 0.647812 0.246922 0.646955
85 1 0.694526 0.37357 0.390706
86 1 0.704973 0.360041 0.645726
110 1 0.606936 0.39064 0.604625
181 2 0.676349 0.380558 0.293083
222 2 0.632049 0.333284 0.626533
285 2 0.679462 0.327035 0.417038
286 2 0.682985 0.323694 0.669095
293 2 0.642461 0.314811 0.506064
301 2 0.661469 0.370277 0.445694
302 2 0.674944 0.377866 0.69672
309 2 0.660731 0.350468 0.476517
310 2 0.641142 0.372296 0.727022
189 2 0.60075 0.358504 0.254648
13 1 0.682826 0.389646 0.320024
14 1 0.675927 0.38403 0.567936
89 1 0.232876 0.407833 0.345272
90 1 0.218007 0.4144 0.596995
3 1 0.300308 0.584361 0.241774
27 1 0.360741 0.565006 0.3276
28 1 0.305172 0.547703 0.568958
35 1 0.32819 0.546097 0.261826
36 1 0.279938 0.548271 0.520305
67 1 0.386821 0.482502 0.408451
68 1 0.388322 0.481642 0.656394
98 1 0.39561 0.473049 0.603165
113 1 0.28038 0.41204 0.411176
114 1 0.281658 0.415641 0.659865
123 1 0.29111 0.581247 0.487836
129 1 0.302648 0.477893 0.476666
130 1 0.334178 0.501153 0.736746
156 1 0.247817 0.592412 0.692297
161 1 0.259508 0.505231 0.443582
162 1 0.283617 0.485072 0.696505
171 2 0.274405 0.543733 0.284466
172 2 0.283076 0.550585 0.544467
186 2 0.322114 0.468223 0.501694
193 2 0.350813 0.427034 0.333977
194 2 0.32666 0.43364 0.584363
201 2 0.375892 0.437147 0.273473
202 2 0.317695 0.419891 0.528795
209 2 0.319827 0.479126 0.308024
210 2 0.366832 0.43249 0.557683
235 2 0.238367 0.535191 0.337238
236 2 0.224436 0.543809 0.588375
243 2 0.293938 0.565996 0.419777
244 2 0.294484 0.55251 0.670353
251 2 0.269183 0.491629 0.364687
252 2 0.264529 0.501938 0.614882
259 2 0.285813 0.503402 0.393346
260 2 0.282933 0.509655 0.64279
265 2 0.347363 0.444899 0.455665
266 2 0.352438 0.447716 0.714663
275 2 0.277015 0.585799 0.461421
276 2 0.298589 0.57851 0.715058
145 1 0.347807 0.4557 0.43012
146 1 0.358948 0.436042 0.678487
219 2 0.39269 0.577103 0.374658
220 2 0.389291 0.583893 0.623701
292 2 0.392517 0.586027 0.752687
75 1 0.377579 0.597311 0.398989
107 1 0.347722 0.577025 0.351251
108 1 0.346357 0.578926 0.600088
81 1 0.471129 0.403173 0.402514
82 1 0.474712 0.399853 0.649875
217 2 0.423331 0.410778 0.379616
218 2 0.418074 0.42248 0.629257
97 1 0.405339 0.477632 0.35517
225 2 0.411288 0.422197 0.376548
226 2 0.406587 0.431952 0.625476
7 1 0.488719 0.529346 0.24151
8 1 0.514844 0.493849 0.501768
19 1 0.444213 0.477437 0.318124
20 1 0.435088 0.539015 0.567397
31 1 0.555912 0.54475 0.317886
32 1 0.561553 0.54543 0.566795
39 1 0.574619 0.486575 0.253682
40 1 0.523697 0.573667 0.51771
41 1 0.477383 0.419183 0.254684
42 1 0.441553 0.433758 0.514776
51 1 0.457585 0.53402 0.26542
52 1 0.400542 0.540842 0.518795
59 1 0.487231 0.535977 0.341567
60 1 0.48476 0.526693 0.588897
127 1 0.531587 0.57788 0.485739
133 1 0.564406 0.454681 0.485925
134 1 0.555481 0.481382 0.736786
137 1 0.424398 0.446552 0.487518
138 1 0.45069 0.471964 0.748095
165 1 0.534551 0.410144 0.436478
166 1 0.507074 0.442751 0.684144
175 2 0.453601 0.537147 0.294651
176 2 0.455479 0.534246 0.542054
179 2 0.468619 0.547032 0.295915
180 2 0.456162 0.547864 0.542035
190 2 0.545247 0.403819 0.493138
205 2 0.543936 0.440255 0.277457
206 2 0.568468 0.445196 0.524212
213 2 0.554148 0.416507 0.308277
214 2 0.53875 0.421237 0.558248
239 2 0.468686 0.528044 0.336661
240 2 0.467416 0.498725 0.582195
247 2 0.494636 0.48324 0.425037
248 2 0.494275 0.476261 0.673505
255 2 0.53993 0.516938 0.363087
256 2 0.529855 0.516334 0.611208
263 2 0.516674 0.521954 0.39384
264 2 0.509059 0.529929 0.643229
269 2 0.540472 0.446614 0.460152
270 2 0.538796 0.461196 0.706685
279 2 0.512652 0.461477 0.461406
280 2 0.521802 0.47346 0.707405
291 2 0.419444 0.591176 0.501652
299 2 0.411433 0.575794 0.442624
300 2 0.40698 0.557653 0.693147
307 2 0.411442 0.56193 0.47368
308 2 0.446685 0.559443 0.726568
182 2 0.684758 0.420449 0.543068
197 2 0.609744 0.474155 0.33606
198 2 0.617305 0.469134 0.585094
23 1 0.671968 0.503756 0.314335
24 1 0.677741 0.502009 0.563381
45 1 0.6857 0.40842 0.270055
46 1 0.703461 0.413301 0.518082
55 1 0.645605 0.520665 0.26951
56 1 0.693519 0.524922 0.525095
63 1 0.709786 0.544246 0.333607
64 1 0.71433 0.54391 0.58362
71 1 0.644475 0.447746 0.405022
72 1 0.642058 0.447889 0.654447
101 1 0.670442 0.520333 0.355099
102 1 0.6661 0.522196 0.604695
141 1 0.694648 0.42978 0.494901
142 1 0.663095 0.451455 0.74574
149 1 0.63305 0.447733 0.426514
150 1 0.623056 0.441447 0.67716
183 2 0.623759 0.555139 0.293677
184 2 0.618614 0.568191 0.543752
223 2 0.674022 0.509493 0.381342
224 2 0.660559 0.507218 0.630188
287 2 0.618428 0.568783 0.417867
288 2 0.617701 0.562699 0.667415
295 2 0.632811 0.539152 0.502581
296 2 0.63786 0.573112 0.74894
303 2 0.653686 0.530456 0.444829
304 2 0.666845 0.536189 0.693785
311 2 0.66248 0.512689 0.473788
312 2 0.66107 0.527635 0.72281
87 1 0.704386 0.573568 0.401968
88 1 0.6989 0.568818 0.65059
4 1 0.224602 0.614139 0.505362
124 1 0.291196 0.612744 0.738747
155 1 0.234736 0.618374 0.438936
76 1 0.373303 0.602168 0.648934
91 1 0.243279 0.623968 0.356211
92 1 0.244883 0.633015 0.605849
99 1 0.348808 0.688965 0.357878
100 1 0.351106 0.690957 0.607042
115 1 0.294885 0.684771 0.424787
116 1 0.281103 0.667701 0.677223
131 1 0.312788 0.687627 0.475017
132 1 0.296448 0.699116 0.723224
163 1 0.303559 0.692781 0.451222
164 1 0.292746 0.689657 0.701352
188 2 0.307976 0.696539 0.500277
195 2 0.300557 0.674134 0.335388
196 2 0.310147 0.662541 0.584414
203 2 0.382198 0.644183 0.275936
204 2 0.358255 0.654221 0.527285
211 2 0.356631 0.646662 0.307877
212 2 0.376817 0.655916 0.558362
227 2 0.320212 0.627274 0.37712
228 2 0.319534 0.635411 0.626927
140 1 0.390459 0.681521 0.73605
147 1 0.398082 0.699712 0.435267
148 1 0.386227 0.686671 0.686269
128 1 0.518408 0.599194 0.74584
159 1 0.521619 0.637867 0.426062
160 1 0.524227 0.638871 0.674671
283 2 0.425195 0.609484 0.412505
284 2 0.420992 0.61051 0.663004
187 2 0.40996 0.617901 0.248437
267 2 0.41953 0.702591 0.460666
268 2 0.411422 0.688366 0.710777
11 1 0.436836 0.658717 0.331331
12 1 0.441563 0.634817 0.581145
43 1 0.467589 0.712026 0.261135
44 1 0.431121 0.724324 0.50983
83 1 0.530865 0.65614 0.402866
84 1 0.524729 0.658619 0.652004
95 1 0.462376 0.641155 0.353375
96 1 0.462902 0.64714 0.603306
135 1 0.532673 0.700621 0.478791
136 1 0.503462 0.68173 0.729103
139 1 0.420607 0.697427 0.486226
167 1 0.510773 0.707845 0.443438
168 1 0.500945 0.70756 0.692032
191 2 0.556758 0.61359 0.255488
192 2 0.553844 0.677054 0.502649
199 2 0.573625 0.635563 0.338321
200 2 0.573395 0.623184 0.588737
207 2 0.53455 0.67118 0.281153
208 2 0.514974 0.68575 0.531469
215 2 0.522929 0.669269 0.311116
216 2 0.533695 0.668693 0.561367
231 2 0.517846 0.658297 0.377157
232 2 0.516137 0.662065 0.626245
271 2 0.554293 0.620913 0.460224
272 2 0.558264 0.630131 0.708023
103 1 0.566599 0.706778 0.357832
104 1 0.56605 0.707195 0.606548
119 1 0.633081 0.648804 0.414682
120 1 0.630044 0.648462 0.66307
15 1 0.649977 0.620919 0.318261
16 1 0.655953 0.619007 0.568408
47 1 0.647881 0.634518 0.273477
48 1 0.632266 0.631159 0.521743
79 1 0.622863 0.622198 0.389217
80 1 0.618351 0.623841 0.638595
111 1 0.632976 0.615636 0.367217
112 1 0.629242 0.617264 0.616509
143 1 0.634475 0.634559 0.483059
144 1 0.617481 0.649228 0.730497
151 1 0.620659 0.651895 0.437712
152 1 0.623562 0.655404 0.685723
ITEM: TIMESTEP
200
ITEM: NUMBER OF ATOMS
312
ITEM: BOX BOUNDS pp pp pp
-4.9725650000000003e+00 1.4827434000000000e+01
-4.9725650000000003e+00 1.4827434000000000e+01
-2.6646452000000000e+01 7.9153550999999993e+01
ITEM: ATOMS id type xs ys zs
6 1 0.637141 0.197066 0.501111
1 1 0.289324 0.259504 0.259686
2 1 0.271361 0.354687 0.507398
25 1 0.317377 0.34498 0.315284
26 1 0.333883 0.323275 0.572747
33 1 0.344899 0.305583 0.277151
34 1 0.332694 0.285566 0.523549
73 1 0.392155 0.299614 0.394299
74 1 0.400179 0.30565 0.642506
105 1 0.317166 0.380969 0.359268
106 1 0.292829 0.378626 0.611797
121 1 0.32274 0.367724 0.484584
122 1 0.330545 0.375103 0.735569
153 1 0.330057 0.334355 0.438305
154 1 0.303607 0.370255 0.697105
169 2 0.265136 0.377839 0.291424
170 2 0.336323 0.292266 0.548569
233 2 0.303311 0.2914 0.341299
234 2 0.294269 0.296022 0.595446
241 2 0.303599 0.293771 0.412251
242 2 0.30754 0.290285 0.658151
249 2 0.379565 0.271729 0.366831
250 2 0.389111 0.27745 0.618313
257 2 0.27895 0.362125 0.386181
258 2 0.275612 0.366786 0.634909
273 2 0.318078 0.297004 0.46312
274 2 0.336763 0.296543 0.716605
185 2 0.375525 0.330665 0.252665
65 1 0.429554 0.2226 0.40919
66 1 0.432275 0.219641 0.656822
5 1 0.493232 0.302454 0.246715
17 1 0.489756 0.272416 0.306486
18 1 0.47967 0.289997 0.555674
30 1 0.589277 0.243562 0.5612
37 1 0.552576 0.254269 0.264064
49 1 0.460717 0.325232 0.271702
50 1 0.534199 0.308046 0.516577
57 1 0.426047 0.278159 0.341397
58 1 0.421478 0.288841 0.593142
93 1 0.487091 0.394155 0.343444
94 1 0.496551 0.393841 0.59562
125 1 0.577784 0.264574 0.486129
126 1 0.569586 0.27268 0.734255
157 1 0.571154 0.289223 0.43581
158 1 0.567306 0.323232 0.68452
173 2 0.558441 0.291309 0.286893
174 2 0.58418 0.30357 0.539753
177 2 0.41395 0.364943 0.297653
178 2 0.451614 0.349861 0.533845
237 2 0.579615 0.324332 0.331873
238 2 0.578912 0.321694 0.580848
245 2 0.562455 0.246933 0.412615
246 2 0.563314 0.245725 0.663982
253 2 0.518389 0.278886 0.356315
254 2 0.530308 0.278023 0.606991
261 2 0.50187 0.24294 0.386534
262 2 0.515895 0.239914 0.636083
277 2 0.580065 0.261232 0.460737
278 2 0.567715 0.283079 0.708781
281 2 0.4348 0.333933 0.422745
282 2 0.436151 0.32751 0.670373
289 2 0.398015 0.333631 0.504499
290 2 0.407315 0.365236 0.753863
297 2 0.451303 0.324394 0.449609
298 2 0.432942 0.348819 0.697535
305 2 0.457055 0.310559 0.477359
306 2 0.472786 0.355341 0.727942
77 1 0.57433 0.357453 0.400221
78 1 0.587099 0.346239 0.649043
109 1 0.619817 0.382697 0.353853
221 2 0.602411 0.386826 0.377899
294 2 0.558136 0.372691 0.751509
9 1 0.449304 0.348517 0.322151
10 1 0.4479 0.357084 0.574398
117 1 0.558465 0.369729 0.418401
118 1 0.559309 0.372956 0.664985
229 2 0.571904 0.370048 0.375958
230 2 0.568135 0.384433 0.627315
29 1 0.609273 0.272789 0.309052
38 1 0.622265 0.226928 0.522262
21 1 0.721415 0.302038 0.306531
22 1 0.690585 0.298662 0.552448
53 1 0.660876 0.301386 0.272241
54 1 0.705631 0.306279 0.529786
61 1 0.682331 0.270652 0.325842
62 1 0.681223 0.271786 0.573419
69 1 0.63379 0.273894 0.390792
70 1 0.653472 0.249058 0.646255
85 1 0.704848 0.371465 0.39433
86 1 0.705654 0.35947 0.645757
110 1 0.610418 0.392908 0.604063
181 2 0.677679 0.385617 0.292493
222 2 0.634845 0.330526 0.62629
285 2 0.687384 0.330027 0.416786
286 2 0.689452 0.329391 0.668848
293 2 0.651047 0.314612 0.506259
301 2 0.663283 0.369611 0.4464
302 2 0.680122 0.377604 0.69768
309 2 0.663656 0.35115 0.476993
310 2 0.642641 0.371191 0.727004
189 2 0.599404 0.35726 0.254012
13 1 0.683054 0.3841 0.320022
14 1 0.674624 0.385915 0.568074
89 1 0.230728 0.407141 0.344771
90 1 0.211055 0.415512 0.597024
3 1 0.307636 0.591294 0.24083
27 1 0.367174 0.564844 0.327852
28 1 0.302017 0.546791 0.568962
35 1 0.328193 0.549591 0.261028
36 1 0.273134 0.545732 0.520608
67 1 0.382718 0.489442 0.407779
68 1 0.387711 0.485615 0.65761
98 1 0.393857 0.472425 0.602277
113 1 0.278387 0.418501 0.409604
114 1 0.282267 0.416092 0.659136
123 1 0.289051 0.584757 0.488129
129 1 0.296882 0.47905 0.476394
130 1 0.333448 0.503666 0.736916
156 1 0.240095 0.594482 0.692033
161 1 0.279216 0.520928 0.440263
162 1 0.288463 0.49077 0.695779
171 2 0.274157 0.544083 0.283938
172 2 0.282544 0.54883 0.54444
186 2 0.32038 0.472587 0.501347
193 2 0.353392 0.424516 0.334287
194 2 0.319743 0.436864 0.584634
201 2 0.373322 0.437693 0.272736
202 2 0.31628 0.418234 0.528781
209 2 0.307075 0.486174 0.309567
210 2 0.36658 0.432206 0.557987
235 2 0.239854 0.532482 0.335173
236 2 0.216835 0.544671 0.588231
243 2 0.290705 0.570555 0.419963
244 2 0.292874 0.555906 0.670662
251 2 0.261084 0.493776 0.363852
252 2 0.256814 0.505383 0.614717
259 2 0.280414 0.511428 0.392473
260 2 0.284915 0.514479 0.642616
265 2 0.344361 0.439618 0.455268
266 2 0.351116 0.448384 0.715028
275 2 0.26264 0.579395 0.46178
276 2 0.29864 0.580409 0.714632
145 1 0.349432 0.448403 0.428511
146 1 0.35889 0.435988 0.678716
219 2 0.389129 0.575431 0.373701
220 2 0.38724 0.587181 0.622759
292 2 0.386602 0.590381 0.75263
75 1 0.367212 0.605261 0.397811
107 1 0.343837 0.576808 0.351248
108 1 0.340524 0.580015 0.600388
81 1 0.46966 0.402306 0.404501
82 1 0.475091 0.398942 0.651387
217 2 0.429623 0.406577 0.381259
218 2 0.418354 0.421037 0.630212
97 1 0.403381 0.47189 0.355116
225 2 0.417477 0.421694 0.376045
226 2 0.405768 0.433212 0.624283
7 1 0.490436 0.53134 0.24114
8 1 0.5121 0.493947 0.501196
19 1 0.441166 0.473994 0.317647
20 1 0.429362 0.53779 0.567518
31 1 0.554414 0.541693 0.317974
32 1 0.55746 0.545465 0.56658
39 1 0.575031 0.483036 0.252606
40 1 0.517789 0.573627 0.517289
41 1 0.474942 0.417336 0.25433
42 1 0.441261 0.438235 0.514589
51 1 0.454335 0.531306 0.264502
52 1 0.392843 0.539244 0.519
59 1 0.486223 0.535569 0.341873
60 1 0.479925 0.525859 0.587948
127 1 0.526825 0.580541 0.485502
133 1 0.563087 0.455776 0.485982
134 1 0.556827 0.475201 0.735874
137 1 0.42425 0.445837 0.487338
138 1 0.457252 0.479551 0.749551
165 1 0.536973 0.403522 0.436499
166 1 0.499425 0.448529 0.683692
175 2 0.448608 0.533643 0.294589
176 2 0.45629 0.534879 0.542108
179 2 0.467523 0.543121 0.295926
180 2 0.456909 0.546334 0.542094
190 2 0.545213 0.401004 0.493826
205 2 0.542507 0.440267 0.276939
206 2 0.569413 0.446797 0.524295
213 2 0.555112 0.41301 0.308188
214 2 0.535136 0.41984 0.557991
239 2 0.472472 0.526007 0.337209
240 2 0.464599 0.498262 0.581914
247 2 0.491785 0.476957 0.425819
248 2 0.491913 0.468544 0.673953
255 2 0.542319 0.516401 0.363092
256 2 0.528363 0.517012 0.610596
263 2 0.515854 0.521769 0.394951
264 2 0.510373 0.531808 0.644323
269 2 0.539962 0.445616 0.460339
270 2 0.537328 0.461192 0.706711
279 2 0.510978 0.45969 0.461616
280 2 0.52384 0.471163 0.707273
291 2 0.415626 0.592783 0.501447
299 2 0.403361 0.571618 0.444716
300 2 0.408062 0.552842 0.693866
307 2 0.405187 0.561567 0.473281
308 2 0.445973 0.558048 0.726625
182 2 0.684571 0.421397 0.543218
197 2 0.613086 0.471997 0.335999
198 2 0.61167 0.468275 0.584948
23 1 0.670808 0.498225 0.313957
24 1 0.673719 0.502711 0.563401
45 1 0.678393 0.418789 0.269322
46 1 0.70754 0.411693 0.51858
55 1 0.641597 0.529475 0.268553
56 1 0.689368 0.524099 0.524451
63 1 0.710761 0.544933 0.333701
64 1 0.710583 0.540389 0.583916
71 1 0.646668 0.451042 0.404789
72 1 0.644391 0.446178 0.654876
101 1 0.674874 0.524473 0.355287
102 1 0.663843 0.519285 0.604722
141 1 0.69377 0.432531 0.4954
142 1 0.665969 0.451345 0.74562
149 1 0.636438 0.444924 0.426395
150 1 0.62199 0.440975 0.678188
183 2 0.621845 0.554371 0.293737
184 2 0.618678 0.569312 0.543731
223 2 0.67183 0.512816 0.381846
224 2 0.655724 0.503268 0.630635
287 2 0.61626 0.564387 0.418042
288 2 0.613188 0.559054 0.668137
295 2 0.627181 0.542433 0.501983
296 2 0.637479 0.572237 0.748551
303 2 0.656833 0.529081 0.445065
304 2 0.669485 0.535582 0.694096
311 2 0.663934 0.510695 0.473753
312 2 0.662926 0.527172 0.722574
87 1 0.702369 0.572432 0.401995
88 1 0.694852 0.562814 0.650918
4 1 0.230473 0.624018 0.506441
124 1 0.288449 0.615401 0.738121
155 1 0.225652 0.62529 0.439056
76 1 0.37073 0.606897 0.64871
91 1 0.238268 0.627064 0.353857
92 1 0.240531 0.63848 0.604785
99 1 0.352484 0.694768 0.355215
100 1 0.352465 0.69431 0.605623
115 1 0.298468 0.685822 0.427391
116 1 0.286141 0.669852 0.677736
131 1 0.32648 0.678872 0.474661
132 1 0.297277 0.701244 0.722466
163 1 0.315563 0.689295 0.45169
164 1 0.298363 0.689028 0.700469
188 2 0.311052 0.704648 0.499084
195 2 0.300053 0.673925 0.334213
196 2 0.311068 0.656827 0.583888
203 2 0.383815 0.642738 0.275697
204 2 0.352437 0.65326 0.526919
211 2 0.355987 0.645041 0.307415
212 2 0.377485 0.653504 0.558325
227 2 0.317884 0.630165 0.374693
228 2 0.317888 0.638385 0.625676
140 1 0.388965 0.683207 0.735806
147 1 0.405696 0.699714 0.437398
148 1 0.39549 0.681176 0.686034
128 1 0.513807 0.581675 0.747394
159 1 0.524685 0.632912 0.428227
160 1 0.532169 0.653721 0.675037
283 2 0.428033 0.610055 0.414823
284 2 0.426628 0.610306 0.665211
187 2 0.416367 0.62096 0.248335
267 2 0.439814 0.710391 0.46209
268 2 0.414682 0.687868 0.71083
11 1 0.436228 0.665411 0.330766
12 1 0.438082 0.632817 0.581486
43 1 0.472485 0.710929 0.261692
44 1 0.429812 0.727357 0.510234
83 1 0.530921 0.65817 0.403699
84 1 0.52422 0.662814 0.652214
95 1 0.461256 0.639076 0.352655
96 1 0.463049 0.64942 0.603178
135 1 0.538951 0.706497 0.478429
136 1 0.505405 0.672647 0.730236
139 1 0.428995 0.700425 0.48713