ITEM: TIMESTEP
0
ITEM: NUMBER OF ATOMS
648
ITEM: BOX BOUNDS pp pp pp
-2.8010100000000002e+00 1.6298990000000000e+01
-2.8010100000000002e+00 1.6298990000000000e+01
-8.4785000000000004e+00 5.3521500000000003e+01
ITEM: ATOMS id type xs ys zs
1 2 0.14665 0.14665 0.16025
10 2 0.395864 0.14665 0.16025
487 1 0.271257 0.14665 0.13675
496 1 0.520472 0.14665 0.13675
19 2 0.645079 0.14665 0.16025
505 1 0.769686 0.14665 0.13675
4 2 0.14665 0.395864 0.16025
541 1 0.14665 0.271257 0.13675
13 2 0.395864 0.395864 0.16025
190 2 0.312793 0.229721 0.1757
217 1 0.229721 0.312793 0.168035
490 1 0.271257 0.395864 0.13675
550 1 0.395864 0.271257 0.13675
595 1 0.271257 0.271257 0.13675
199 2 0.562007 0.229721 0.1757
226 1 0.478936 0.312793 0.168035
499 1 0.520472 0.395864 0.13675
604 1 0.520472 0.271257 0.13675
22 2 0.645079 0.395864 0.16025
235 1 0.728151 0.312793 0.168035
508 1 0.769686 0.395864 0.13675
559 1 0.645079 0.271257 0.13675
613 1 0.769686 0.271257 0.13675
208 2 0.811222 0.229721 0.1757
544 1 0.14665 0.520472 0.13675
193 2 0.312793 0.478936 0.1757
220 1 0.229721 0.562007 0.168035
553 1 0.395864 0.520472 0.13675
598 1 0.271257 0.520472 0.13675
202 2 0.562007 0.478936 0.1757
229 1 0.478936 0.562007 0.168035
607 1 0.520472 0.520472 0.13675
238 1 0.728151 0.562007 0.168035
562 1 0.645079 0.520472 0.13675
616 1 0.769686 0.520472 0.13675
211 2 0.811222 0.478936 0.1757
7 2 0.14665 0.645079 0.16025
547 1 0.14665 0.769686 0.13675
16 2 0.395864 0.645079 0.16025
196 2 0.312793 0.728151 0.1757
493 1 0.271257 0.645079 0.13675
556 1 0.395864 0.769686 0.13675
601 1 0.271257 0.769686 0.13675
205 2 0.562007 0.728151 0.1757
502 1 0.520472 0.645079 0.13675
610 1 0.520472 0.769686 0.13675
25 2 0.645079 0.645079 0.16025
511 1 0.769686 0.645079 0.13675
565 1 0.645079 0.769686 0.13675
619 1 0.769686 0.769686 0.13675
214 2 0.811222 0.728151 0.1757
223 1 0.229721 0.811222 0.168035
232 1 0.478936 0.811222 0.168035
241 1 0.728151 0.811222 0.168035
325 1 0.187593 0.228537 0.19925
433 1 0.187593 0.354921 0.19925
136 2 0.312793 0.229721 0.2228
271 1 0.229721 0.312793 0.230465
379 1 0.313977 0.354921 0.19925
145 2 0.562007 0.229721 0.2228
280 1 0.478936 0.312793 0.230465
334 1 0.436808 0.228537 0.19925
388 1 0.563192 0.354921 0.19925
442 1 0.436808 0.354921 0.19925
289 1 0.728151 0.312793 0.230465
343 1 0.686023 0.228537 0.19925
451 1 0.686023 0.354921 0.19925
154 2 0.811222 0.229721 0.2228
397 1 0.812407 0.354921 0.19925
328 1 0.187593 0.477751 0.19925
139 2 0.312793 0.478936 0.2228
274 1 0.229721 0.562007 0.230465
148 2 0.562007 0.478936 0.2228
283 1 0.478936 0.562007 0.230465
337 1 0.436808 0.477751 0.19925
292 1 0.728151 0.562007 0.230465
346 1 0.686023 0.477751 0.19925
157 2 0.811222 0.478936 0.2228
331 1 0.187593 0.726966 0.19925
436 1 0.187593 0.604136 0.19925
142 2 0.312793 0.728151 0.2228
382 1 0.313977 0.604136 0.19925
151 2 0.562007 0.728151 0.2228
340 1 0.436808 0.726966 0.19925
391 1 0.563192 0.604136 0.19925
445 1 0.436808 0.604136 0.19925
349 1 0.686023 0.726966 0.19925
454 1 0.686023 0.604136 0.19925
160 2 0.811222 0.728151 0.2228
400 1 0.812407 0.604136 0.19925
439 1 0.187593 0.85335 0.19925
277 1 0.229721 0.811222 0.230465
385 1 0.313977 0.85335 0.19925
286 1 0.478936 0.811222 0.230465
394 1 0.563192 0.85335 0.19925
448 1 0.436808 0.85335 0.19925
295 1 0.728151 0.811222 0.230465
457 1 0.686023 0.85335 0.19925
403 1 0.812407 0.85335 0.19925
28 2 0.14665 0.14665 0.28525
55 2 0.14665 0.14665 0.23825
37 2 0.395864 0.14665 0.28525
64 2 0.395864 0.14665 0.23825
568 1 0.271257 0.14665 0.26175
577 1 0.520472 0.14665 0.26175
46 2 0.645079 0.14665 0.28525
73 2 0.645079 0.14665 0.23825
586 1 0.769686 0.14665 0.26175
31 2 0.14665 0.395864 0.28525
58 2 0.14665 0.395864 0.23825
622 1 0.14665 0.271257 0.26175
40 2 0.395864 0.395864 0.28525
67 2 0.395864 0.395864 0.23825
244 1 0.312793 0.229721 0.293035
514 1 0.271257 0.271257 0.26175
571 1 0.271257 0.395864 0.26175
631 1 0.395864 0.271257 0.26175
253 1 0.562007 0.229721 0.293035
523 1 0.520472 0.271257 0.26175
580 1 0.520472 0.395864 0.26175
49 2 0.645079 0.395864 0.28525
76 2 0.645079 0.395864 0.23825
532 1 0.769686 0.271257 0.26175
589 1 0.769686 0.395864 0.26175
640 1 0.645079 0.271257 0.26175
262 1 0.811222 0.229721 0.293035
625 1 0.14665 0.520472 0.26175
247 1 0.312793 0.478936 0.293035
517 1 0.271257 0.520472 0.26175
634 1 0.395864 0.520472 0.26175
256 1 0.562007 0.478936 0.293035
526 1 0.520472 0.520472 0.26175
535 1 0.769686 0.520472 0.26175
643 1 0.645079 0.520472 0.26175
265 1 0.811222 0.478936 0.293035
34 2 0.14665 0.645079 0.28525
61 2 0.14665 0.645079 0.23825
628 1 0.14665 0.769686 0.26175
43 2 0.395864 0.645079 0.28525
70 2 0.395864 0.645079 0.23825
250 1 0.312793 0.728151 0.293035
520 1 0.271257 0.769686 0.26175
574 1 0.271257 0.645079 0.26175
637 1 0.395864 0.769686 0.26175
259 1 0.562007 0.728151 0.293035
529 1 0.520472 0.769686 0.26175
583 1 0.520472 0.645079 0.26175
52 2 0.645079 0.645079 0.28525
79 2 0.645079 0.645079 0.23825
538 1 0.769686 0.769686 0.26175
592 1 0.769686 0.645079 0.26175
646 1 0.645079 0.769686 0.26175
268 1 0.811222 0.728151 0.293035
352 1 0.354921 0.187593 0.32425
460 1 0.228537 0.187593 0.32425
469 1 0.477751 0.187593 0.32425
361 1 0.604136 0.187593 0.32425
478 1 0.726966 0.187593 0.32425
370 1 0.85335 0.187593 0.32425
109 2 0.229721 0.312793 0.3478
163 2 0.229721 0.312793 0.3007
406 1 0.354921 0.313977 0.32425
118 2 0.478936 0.312793 0.3478
172 2 0.478936 0.312793 0.3007
127 2 0.728151 0.312793 0.3478
181 2 0.728151 0.312793 0.3007
415 1 0.604136 0.313977 0.32425
424 1 0.85335 0.313977 0.32425
112 2 0.229721 0.562007 0.3478
166 2 0.229721 0.562007 0.3007
355 1 0.354921 0.436808 0.32425
409 1 0.354921 0.563192 0.32425
463 1 0.228537 0.436808 0.32425
121 2 0.478936 0.562007 0.3478
175 2 0.478936 0.562007 0.3007
472 1 0.477751 0.436808 0.32425
130 2 0.728151 0.562007 0.3478
184 2 0.728151 0.562007 0.3007
364 1 0.604136 0.436808 0.32425
418 1 0.604136 0.563192 0.32425
481 1 0.726966 0.436808 0.32425
373 1 0.85335 0.436808 0.32425
427 1 0.85335 0.563192 0.32425
358 1 0.354921 0.686023 0.32425
466 1 0.228537 0.686023 0.32425
475 1 0.477751 0.686023 0.32425
367 1 0.604136 0.686023 0.32425
484 1 0.726966 0.686023 0.32425
376 1 0.85335 0.686023 0.32425
115 2 0.229721 0.811222 0.3478
169 2 0.229721 0.811222 0.3007
412 1 0.354921 0.812407 0.32425
124 2 0.478936 0.811222 0.3478
178 2 0.478936 0.811222 0.3007
133 2 0.728151 0.811222 0.3478
187 2 0.728151 0.811222 0.3007
421 1 0.604136 0.812407 0.32425
430 1 0.85335 0.812407 0.32425
2 2 0.14665 0.14665 0.41025
82 2 0.14665 0.14665 0.36325
11 2 0.395864 0.14665 0.41025
91 2 0.395864 0.14665 0.36325
488 1 0.271257 0.14665 0.38675
497 1 0.520472 0.14665 0.38675
20 2 0.645079 0.14665 0.41025
100 2 0.645079 0.14665 0.36325
506 1 0.769686 0.14665 0.38675
5 2 0.14665 0.395864 0.41025
85 2 0.14665 0.395864 0.36325
542 1 0.14665 0.271257 0.38675
14 2 0.395864 0.395864 0.41025
94 2 0.395864 0.395864 0.36325
298 1 0.312793 0.229721 0.355465
491 1 0.271257 0.395864 0.38675
551 1 0.395864 0.271257 0.38675
596 1 0.271257 0.271257 0.38675
307 1 0.562007 0.229721 0.355465
500 1 0.520472 0.395864 0.38675
605 1 0.520472 0.271257 0.38675
23 2 0.645079 0.395864 0.41025
103 2 0.645079 0.395864 0.36325
509 1 0.769686 0.395864 0.38675
560 1 0.645079 0.271257 0.38675
614 1 0.769686 0.271257 0.38675
316 1 0.811222 0.229721 0.355465
545 1 0.14665 0.520472 0.38675
301 1 0.312793 0.478936 0.355465
554 1 0.395864 0.520472 0.38675
599 1 0.271257 0.520472 0.38675
310 1 0.562007 0.478936 0.355465
608 1 0.520472 0.520472 0.38675
563 1 0.645079 0.520472 0.38675
617 1 0.769686 0.520472 0.38675
319 1 0.811222 0.478936 0.355465
8 2 0.14665 0.645079 0.41025
88 2 0.14665 0.645079 0.36325
548 1 0.14665 0.769686 0.38675
17 2 0.395864 0.645079 0.41025
97 2 0.395864 0.645079 0.36325
304 1 0.312793 0.728151 0.355465
494 1 0.271257 0.645079 0.38675
557 1 0.395864 0.769686 0.38675
602 1 0.271257 0.769686 0.38675
313 1 0.562007 0.728151 0.355465
503 1 0.520472 0.645079 0.38675
611 1 0.520472 0.769686 0.38675
26 2 0.645079 0.645079 0.41025
106 2 0.645079 0.645079 0.36325
512 1 0.769686 0.645079 0.38675
566 1 0.645079 0.769686 0.38675
620 1 0.769686 0.769686 0.38675
322 1 0.811222 0.728151 0.355465
326 1 0.187593 0.228537 0.44925
434 1 0.187593 0.354921 0.44925
191 2 0.312793 0.229721 0.4257
218 1 0.229721 0.312793 0.418035
380 1 0.313977 0.354921 0.44925
200 2 0.562007 0.229721 0.4257
227 1 0.478936 0.312793 0.418035
335 1 0.436808 0.228537 0.44925
389 1 0.563192 0.354921 0.44925
443 1 0.436808 0.354921 0.44925
236 1 0.728151 0.312793 0.418035
344 1 0.686023 0.228537 0.44925
452 1 0.686023 0.354921 0.44925
209 2 0.811222 0.229721 0.4257
398 1 0.812407 0.354921 0.44925
329 1 0.187593 0.477751 0.44925
194 2 0.312793 0.478936 0.4257
221 1 0.229721 0.562007 0.418035
203 2 0.562007 0.478936 0.4257
230 1 0.478936 0.562007 0.418035
338 1 0.436808 0.477751 0.44925
239 1 0.728151 0.562007 0.418035
347 1 0.686023 0.477751 0.44925
212 2 0.811222 0.478936 0.4257
332 1 0.187593 0.726966 0.44925
437 1 0.187593 0.604136 0.44925
197 2 0.312793 0.728151 0.4257
383 1 0.313977 0.604136 0.44925
206 2 0.562007 0.728151 0.4257
341 1 0.436808 0.726966 0.44925
392 1 0.563192 0.604136 0.44925
446 1 0.436808 0.604136 0.44925
350 1 0.686023 0.726966 0.44925
455 1 0.686023 0.604136 0.44925
215 2 0.811222 0.728151 0.4257
401 1 0.812407 0.604136 0.44925
440 1 0.187593 0.85335 0.44925
224 1 0.229721 0.811222 0.418035
386 1 0.313977 0.85335 0.44925
233 1 0.478936 0.811222 0.418035
395 1 0.563192 0.85335 0.44925
449 1 0.436808 0.85335 0.44925
242 1 0.728151 0.811222 0.418035
458 1 0.686023 0.85335 0.44925
404 1 0.812407 0.85335 0.44925
56 2 0.14665 0.14665 0.48825
65 2 0.395864 0.14665 0.48825
569 1 0.271257 0.14665 0.51175
578 1 0.520472 0.14665 0.51175
74 2 0.645079 0.14665 0.48825
587 1 0.769686 0.14665 0.51175
59 2 0.14665 0.395864 0.48825
623 1 0.14665 0.271257 0.51175
68 2 0.395864 0.395864 0.48825
137 2 0.312793 0.229721 0.4728
272 1 0.229721 0.312793 0.480465
515 1 0.271257 0.271257 0.51175
572 1 0.271257 0.395864 0.51175
632 1 0.395864 0.271257 0.51175
146 2 0.562007 0.229721 0.4728
281 1 0.478936 0.312793 0.480465
524 1 0.520472 0.271257 0.51175
581 1 0.520472 0.395864 0.51175
77 2 0.645079 0.395864 0.48825
290 1 0.728151 0.312793 0.480465
533 1 0.769686 0.271257 0.51175
590 1 0.769686 0.395864 0.51175
641 1 0.645079 0.271257 0.51175
155 2 0.811222 0.229721 0.4728
626 1 0.14665 0.520472 0.51175
140 2 0.312793 0.478936 0.4728
275 1 0.229721 0.562007 0.480465
518 1 0.271257 0.520472 0.51175
635 1 0.395864 0.520472 0.51175
149 2 0.562007 0.478936 0.4728
284 1 0.478936 0.562007 0.480465
527 1 0.520472 0.520472 0.51175
293 1 0.728151 0.562007 0.480465
536 1 0.769686 0.520472 0.51175
644 1 0.645079 0.520472 0.51175
158 2 0.811222 0.478936 0.4728
62 2 0.14665 0.645079 0.48825
629 1 0.14665 0.769686 0.51175
71 2 0.395864 0.645079 0.48825
143 2 0.312793 0.728151 0.4728
521 1 0.271257 0.769686 0.51175
575 1 0.271257 0.645079 0.51175
638 1 0.395864 0.769686 0.51175
152 2 0.562007 0.728151 0.4728
530 1 0.520472 0.769686 0.51175
584 1 0.520472 0.645079 0.51175
80 2 0.645079 0.645079 0.48825
539 1 0.769686 0.769686 0.51175
593 1 0.769686 0.645079 0.51175
647 1 0.645079 0.769686 0.51175
161 2 0.811222 0.728151 0.4728
278 1 0.229721 0.811222 0.480465
287 1 0.478936 0.811222 0.480465
296 1 0.728151 0.811222 0.480465
29 2 0.14665 0.14665 0.53525
38 2 0.395864 0.14665 0.53525
353 1 0.354921 0.187593 0.57425
461 1 0.228537 0.187593 0.57425
470 1 0.477751 0.187593 0.57425
47 2 0.645079 0.14665 0.53525
362 1 0.604136 0.187593 0.57425
479 1 0.726966 0.187593 0.57425
371 1 0.85335 0.187593 0.57425
32 2 0.14665 0.395864 0.53525
41 2 0.395864 0.395864 0.53525
164 2 0.229721 0.312793 0.5507
245 1 0.312793 0.229721 0.543035
407 1 0.354921 0.313977 0.57425
173 2 0.478936 0.312793 0.5507
254 1 0.562007 0.229721 0.543035
50 2 0.645079 0.395864 0.53525
182 2 0.728151 0.312793 0.5507
416 1 0.604136 0.313977 0.57425
263 1 0.811222 0.229721 0.543035
425 1 0.85335 0.313977 0.57425
167 2 0.229721 0.562007 0.5507
248 1 0.312793 0.478936 0.543035
356 1 0.354921 0.436808 0.57425
410 1 0.354921 0.563192 0.57425
464 1 0.228537 0.436808 0.57425
176 2 0.478936 0.562007 0.5507
257 1 0.562007 0.478936 0.543035
473 1 0.477751 0.436808 0.57425
185 2 0.728151 0.562007 0.5507
365 1 0.604136 0.436808 0.57425
419 1 0.604136 0.563192 0.57425
482 1 0.726966 0.436808 0.57425
266 1 0.811222 0.478936 0.543035
374 1 0.85335 0.436808 0.57425
428 1 0.85335 0.563192 0.57425
35 2 0.14665 0.645079 0.53525
44 2 0.395864 0.645079 0.53525
251 1 0.312793 0.728151 0.543035
359 1 0.354921 0.686023 0.57425
467 1 0.228537 0.686023 0.57425
260 1 0.562007 0.728151 0.543035
476 1 0.477751 0.686023 0.57425
53 2 0.645079 0.645079 0.53525
368 1 0.604136 0.686023 0.57425
485 1 0.726966 0.686023 0.57425
269 1 0.811222 0.728151 0.543035
377 1 0.85335 0.686023 0.57425
170 2 0.229721 0.811222 0.5507
413 1 0.354921 0.812407 0.57425
179 2 0.478936 0.811222 0.5507
188 2 0.728151 0.811222 0.5507
422 1 0.604136 0.812407 0.57425
431 1 0.85335 0.812407 0.57425
83 2 0.14665 0.14665 0.61325
92 2 0.395864 0.14665 0.61325
489 1 0.271257 0.14665 0.63675
498 1 0.520472 0.14665 0.63675
101 2 0.645079 0.14665 0.61325
507 1 0.769686 0.14665 0.63675
86 2 0.14665 0.395864 0.61325
543 1 0.14665 0.271257 0.63675
95 2 0.395864 0.395864 0.61325
110 2 0.229721 0.312793 0.5978
299 1 0.312793 0.229721 0.605465
492 1 0.271257 0.395864 0.63675
552 1 0.395864 0.271257 0.63675
597 1 0.271257 0.271257 0.63675
119 2 0.478936 0.312793 0.5978
308 1 0.562007 0.229721 0.605465
501 1 0.520472 0.395864 0.63675
606 1 0.520472 0.271257 0.63675
104 2 0.645079 0.395864 0.61325
128 2 0.728151 0.312793 0.5978
510 1 0.769686 0.395864 0.63675
561 1 0.645079 0.271257 0.63675
615 1 0.769686 0.271257 0.63675
317 1 0.811222 0.229721 0.605465
546 1 0.14665 0.520472 0.63675
113 2 0.229721 0.562007 0.5978
302 1 0.312793 0.478936 0.605465
555 1 0.395864 0.520472 0.63675
600 1 0.271257 0.520472 0.63675
122 2 0.478936 0.562007 0.5978
311 1 0.562007 0.478936 0.605465
609 1 0.520472 0.520472 0.63675
131 2 0.728151 0.562007 0.5978
564 1 0.645079 0.520472 0.63675
618 1 0.769686 0.520472 0.63675
320 1 0.811222 0.478936 0.605465
89 2 0.14665 0.645079 0.61325
549 1 0.14665 0.769686 0.63675
98 2 0.395864 0.645079 0.61325
305 1 0.312793 0.728151 0.605465
495 1 0.271257 0.645079 0.63675
558 1 0.395864 0.769686 0.63675
603 1 0.271257 0.769686 0.63675
314 1 0.562007 0.728151 0.605465
504 1 0.520472 0.645079 0.63675
612 1 0.520472 0.769686 0.63675
107 2 0.645079 0.645079 0.61325
513 1 0.769686 0.645079 0.63675
567 1 0.645079 0.769686 0.63675
621 1 0.769686 0.769686 0.63675
323 1 0.811222 0.728151 0.605465
116 2 0.229721 0.811222 0.5978
125 2 0.478936 0.811222 0.5978
134 2 0.728151 0.811222 0.5978
3 2 0.14665 0.14665 0.66025
12 2 0.395864 0.14665 0.66025
21 2 0.645079 0.14665 0.66025
6 2 0.14665 0.395864 0.66025
327 1 0.187593 0.228537 0.69925
435 1 0.187593 0.354921 0.69925
15 2 0.395864 0.395864 0.66025
192 2 0.312793 0.229721 0.6757
219 1 0.229721 0.312793 0.668035
381 1 0.313977 0.354921 0.69925
201 2 0.562007 0.229721 0.6757
228 1 0.478936 0.312793 0.668035
336 1 0.436808 0.228537 0.69925
390 1 0.563192 0.354921 0.69925
444 1 0.436808 0.354921 0.69925
24 2 0.645079 0.395864 0.66025
237 1 0.728151 0.312793 0.668035
345 1 0.686023 0.228537 0.69925
453 1 0.686023 0.354921 0.69925
210 2 0.811222 0.229721 0.6757
399 1 0.812407 0.354921 0.69925
330 1 0.187593 0.477751 0.69925
195 2 0.312793 0.478936 0.6757
222 1 0.229721 0.562007 0.668035
204 2 0.562007 0.478936 0.6757
231 1 0.478936 0.562007 0.668035
339 1 0.436808 0.477751 0.69925
240 1 0.728151 0.562007 0.668035
348 1 0.686023 0.477751 0.69925
213 2 0.811222 0.478936 0.6757
9 2 0.14665 0.645079 0.66025
333 1 0.187593 0.726966 0.69925
438 1 0.187593 0.604136 0.69925
18 2 0.395864 0.645079 0.66025
198 2 0.312793 0.728151 0.6757
384 1 0.313977 0.604136 0.69925
207 2 0.562007 0.728151 0.6757
342 1 0.436808 0.726966 0.69925
393 1 0.563192 0.604136 0.69925
447 1 0.436808 0.604136 0.69925
27 2 0.645079 0.645079 0.66025
351 1 0.686023 0.726966 0.69925
456 1 0.686023 0.604136 0.69925
216 2 0.811222 0.728151 0.6757
402 1 0.812407 0.604136 0.69925
441 1 0.187593 0.85335 0.69925
225 1 0.229721 0.811222 0.668035
387 1 0.313977 0.85335 0.69925
234 1 0.478936 0.811222 0.668035
396 1 0.563192 0.85335 0.69925
450 1 0.436808 0.85335 0.69925
243 1 0.728151 0.811222 0.668035
459 1 0.686023 0.85335 0.69925
405 1 0.812407 0.85335 0.69925
57 2 0.14665 0.14665 0.73825
66 2 0.395864 0.14665 0.73825
570 1 0.271257 0.14665 0.76175
579 1 0.520472 0.14665 0.76175
75 2 0.645079 0.14665 0.73825
588 1 0.769686 0.14665 0.76175
60 2 0.14665 0.395864 0.73825
624 1 0.14665 0.271257 0.76175
69 2 0.395864 0.395864 0.73825
138 2 0.312793 0.229721 0.7228
273 1 0.229721 0.312793 0.730465
516 1 0.271257 0.271257 0.76175
573 1 0.271257 0.395864 0.76175
633 1 0.395864 0.271257 0.76175
147 2 0.562007 0.229721 0.7228
282 1 0.478936 0.312793 0.730465
525 1 0.520472 0.271257 0.76175
582 1 0.520472 0.395864 0.76175
78 2 0.645079 0.395864 0.73825
291 1 0.728151 0.312793 0.730465
534 1 0.769686 0.271257 0.76175
591 1 0.769686 0.395864 0.76175
642 1 0.645079 0.271257 0.76175
156 2 0.811222 0.229721 0.7228
627 1 0.14665 0.520472 0.76175
141 2 0.312793 0.478936 0.7228
276 1 0.229721 0.562007 0.730465
519 1 0.271257 0.520472 0.76175
636 1 0.395864 0.520472 0.76175
150 2 0.562007 0.478936 0.7228
285 1 0.478936 0.562007 0.730465
528 1 0.520472 0.520472 0.76175
294 1 0.728151 0.562007 0.730465
537 1 0.769686 0.520472 0.76175
645 1 0.645079 0.520472 0.76175
159 2 0.811222 0.478936 0.7228
63 2 0.14665 0.645079 0.73825
630 1 0.14665 0.769686 0.76175
72 2 0.395864 0.645079 0.73825
144 2 0.312793 0.728151 0.7228
522 1 0.271257 0.769686 0.76175
576 1 0.271257 0.645079 0.76175
639 1 0.395864 0.769686 0.76175
153 2 0.562007 0.728151 0.7228
531 1 0.520472 0.769686 0.76175
585 1 0.520472 0.645079 0.76175
81 2 0.645079 0.645079 0.73825
540 1 0.769686 0.769686 0.76175
594 1 0.769686 0.645079 0.76175
648 1 0.645079 0.769686 0.76175
162 2 0.811222 0.728151 0.7228
279 1 0.229721 0.811222 0.730465
288 1 0.478936 0.811222 0.730465
297 1 0.728151 0.811222 0.730465
30 2 0.14665 0.14665 0.78525
39 2 0.395864 0.14665 0.78525
48 2 0.645079 0.14665 0.78525
33 2 0.14665 0.395864 0.78525
42 2 0.395864 0.395864 0.78525
165 2 0.229721 0.312793 0.8007
246 1 0.312793 0.229721 0.793035
174 2 0.478936 0.312793 0.8007
255 1 0.562007 0.229721 0.793035
51 2 0.645079 0.395864 0.78525
183 2 0.728151 0.312793 0.8007
264 1 0.811222 0.229721 0.793035
168 2 0.229721 0.562007 0.8007
249 1 0.312793 0.478936 0.793035
177 2 0.478936 0.562007 0.8007
258 1 0.562007 0.478936 0.793035
186 2 0.728151 0.562007 0.8007
267 1 0.811222 0.478936 0.793035
36 2 0.14665 0.645079 0.78525
45 2 0.395864 0.645079 0.78525
252 1 0.312793 0.728151 0.793035
261 1 0.562007 0.728151 0.793035
54 2 0.645079 0.645079 0.78525
270 1 0.811222 0.728151 0.793035
171 2 0.229721 0.811222 0.8007
180 2 0.478936 0.811222 0.8007
189 2 0.728151 0.811222 0.8007
84 2 0.14665 0.14665 0.86325
93 2 0.395864 0.14665 0.86325
354 1 0.354921 0.187593 0.82425
462 1 0.228537 0.187593 0.82425
471 1 0.477751 0.187593 0.82425
102 2 0.645079 0.14665 0.86325
363 1 0.604136 0.187593 0.82425
480 1 0.726966 0.187593 0.82425
372 1 0.85335 0.187593 0.82425
87 2 0.14665 0.395864 0.86325
96 2 0.395864 0.395864 0.86325
111 2 0.229721 0.312793 0.8478
300 1 0.312793 0.229721 0.855465
408 1 0.354921 0.313977 0.82425
120 2 0.478936 0.312793 0.8478
309 1 0.562007 0.229721 0.855465
105 2 0.645079 0.395864 0.86325
129 2 0.728151 0.312793 0.8478
417 1 0.604136 0.313977 0.82425
318 1 0.811222 0.229721 0.855465
426 1 0.85335 0.313977 0.82425
114 2 0.229721 0.562007 0.8478
303 1 0.312793 0.478936 0.855465
357 1 0.354921 0.436808 0.82425
411 1 0.354921 0.563192 0.82425
465 1 0.228537 0.436808 0.82425
123 2 0.478936 0.562007 0.8478
312 1 0.562007 0.478936 0.855465
474 1 0.477751 0.436808 0.82425
132 2 0.728151 0.562007 0.8478
366 1 0.604136 0.436808 0.82425
420 1 0.604136 0.563192 0.82425
483 1 0.726966 0.436808 0.82425
321 1 0.811222 0.478936 0.855465
375 1 0.85335 0.436808 0.82425
429 1 0.85335 0.563192 0.82425
90 2 0.14665 0.645079 0.86325
99 2 0.395864 0.645079 0.86325
306 1 0.312793 0.728151 0.855465
360 1 0.354921 0.686023 0.82425
468 1 0.228537 0.686023 0.82425
315 1 0.562007 0.728151 0.855465
477 1 0.477751 0.686023 0.82425
108 2 0.645079 0.645079 0.86325
369 1 0.604136 0.686023 0.82425
486 1 0.726966 0.686023 0.82425
324 1 0.811222 0.728151 0.855465
378 1 0.85335 0.686023 0.82425
117 2 0.229721 0.811222 0.8478
414 1 0.354921 0.812407 0.82425
126 2 0.478936 0.811222 0.8478
135 2 0.728151 0.811222 0.8478
423 1 0.604136 0.812407 0.82425
432 1 0.85335 0.812407 0.82425
ITEM: TIMESTEP
100
ITEM: NUMBER OF ATOMS
648
ITEM: BOX BOUNDS pp pp pp
-2.8010100000000002e+00 1.6298990000000000e+01
-2.8010100000000002e+00 1.6298990000000000e+01
-8.4785000000000004e+00 5.3521500000000003e+01
ITEM: ATOMS id type xs ys zs
1 2 0.293593 0.230467 0.154846
10 2 0.448615 0.223435 0.158376
487 1 0.365067 0.12579 0.149591
496 1 0.548963 0.153234 0.143289
19 2 0.668488 0.204162 0.143727
505 1 0.739132 0.109608 0.13279
4 2 0.221027 0.457638 0.166945
541 1 0.188004 0.197703 0.140046
13 2 0.368846 0.405497 0.159254
190 2 0.353532 0.298854 0.196882
217 1 0.249334 0.339518 0.171919
490 1 0.324326 0.394617 0.123506
550 1 0.379128 0.251149 0.125666
595 1 0.320974 0.329397 0.131812
199 2 0.584523 0.246704 0.182011
226 1 0.489751 0.322294 0.184956
499 1 0.587144 0.399638 0.13056
604 1 0.554084 0.283307 0.142643
22 2 0.57933 0.399564 0.168798
235 1 0.678612 0.327299 0.159108
508 1 0.830298 0.305926 0.15062
559 1 0.65857 0.294149 0.11709
613 1 0.764123 0.286809 0.147385
208 2 0.774488 0.160358 0.178328
544 1 0.127218 0.461976 0.143061
193 2 0.329682 0.528391 0.192687
220 1 0.203656 0.583088 0.164428
553 1 0.400257 0.419138 0.121985
598 1 0.30692 0.529935 0.147195
202 2 0.557309 0.555441 0.187833
229 1 0.587315 0.611539 0.178814
607 1 0.629445 0.581415 0.119447
238 1 0.674524 0.517314 0.176267
562 1 0.626798 0.386087 0.133722
616 1 0.799926 0.607314 0.152512
211 2 0.73108 0.409859 0.1865
7 2 0.188391 0.752429 0.166196
547 1 0.0991599 0.743605 0.140164
16 2 0.316195 0.661279 0.160119
196 2 0.317597 0.838514 0.176295
493 1 0.301661 0.626995 0.124244
556 1 0.353885 0.702698 0.126678
601 1 0.249112 0.72408 0.13196
205 2 0.482837 0.704406 0.172712
502 1 0.550011 0.62465 0.116627
610 1 0.549387 0.759777 0.123635
25 2 0.615164 0.678498 0.144072
511 1 0.820676 0.572123 0.14679
565 1 0.602089 0.780302 0.123798
619 1 0.705389 0.671554 0.115968
214 2 0.723292 0.647209 0.180819
223 1 0.184101 0.87703 0.174146
232 1 0.434149 0.80109 0.169441
241 1 0.672959 0.775398 0.166906
325 1 0.23467 0.230733 0.192305
433 1 0.16756 0.317308 0.204731
136 2 0.348261 0.357369 0.246285
271 1 0.177369 0.378002 0.236046
379 1 0.254447 0.406272 0.206205
145 2 0.568008 0.2655 0.228932
280 1 0.452008 0.302471 0.224009
334 1 0.468604 0.207375 0.201708
388 1 0.521039 0.391428 0.214236
442 1 0.394677 0.424992 0.212871
289 1 0.701828 0.249382 0.225659
343 1 0.672885 0.159957 0.20401
451 1 0.685745 0.292399 0.204971
154 2 0.779713 0.212639 0.220717
397 1 0.791055 0.28995 0.183907
328 1 0.20979 0.536722 0.208855
139 2 0.307004 0.531029 0.24116
274 1 0.254573 0.640612 0.231652
148 2 0.563477 0.556495 0.240424
283 1 0.437855 0.563142 0.235627
337 1 0.459216 0.499293 0.204496
292 1 0.775213 0.575531 0.210777
346 1 0.683186 0.491331 0.215793
157 2 0.739175 0.367623 0.233437
331 1 0.210589 0.754919 0.172376
436 1 0.129211 0.627456 0.208439
142 2 0.245078 0.756432 0.211847
382 1 0.236317 0.6451 0.192525
151 2 0.492352 0.688848 0.221897
340 1 0.391339 0.758829 0.201977
391 1 0.622849 0.647919 0.213794
445 1 0.41976 0.620255 0.195888
349 1 0.598664 0.733903 0.194105
454 1 0.652665 0.610684 0.214719
160 2 0.745612 0.69103 0.226792
400 1 0.797501 0.524595 0.178968
439 1 0.140715 0.800536 0.202376
277 1 0.232006 0.791551 0.236702
385 1 0.236316 0.88271 0.207977
286 1 0.4774 0.75706 0.237207
394 1 0.50264 0.807504 0.201421
448 1 0.404115 0.881578 0.202159
295 1 0.67954 0.749326 0.221275
457 1 0.658987 0.809877 0.216283
403 1 0.754652 0.773882 0.194949
28 2 0.246558 0.223567 0.283285
55 2 0.231774 0.265721 0.23461
37 2 0.510942 0.213506 0.290588
64 2 0.424492 0.205028 0.250018
568 1 0.290902 0.155081 0.249265
577 1 0.535818 0.13192 0.259368
46 2 0.754438 0.156538 0.298339
73 2 0.663327 0.17795 0.258787
586 1 0.746148 0.0787375 0.267147
31 2 0.220201 0.444365 0.270837
58 2 0.1478 0.574363 0.245605
622 1 0.168276 0.317111 0.267093
40 2 0.40291 0.333851 0.297051
67 2 0.434933 0.469861 0.270847
244 1 0.372028 0.205463 0.290218
514 1 0.300533 0.33057 0.267248
571 1 0.328266 0.431081 0.245457
631 1 0.334067 0.292775 0.261777
253 1 0.636948 0.20748 0.29964
523 1 0.551433 0.25751 0.253494
580 1 0.480748 0.328821 0.259501
49 2 0.716243 0.413794 0.279045
76 2 0.587754 0.404679 0.247043
532 1 0.745418 0.276585 0.270505
589 1 0.771211 0.398864 0.245641
640 1 0.655251 0.306247 0.261126
262 1 0.857073 0.225365 0.304085
625 1 0.1464 0.561459 0.287685
247 1 0.32203 0.418851 0.294999
517 1 0.299583 0.605123 0.257546
634 1 0.393721 0.530153 0.236372
256 1 0.588086 0.49152 0.277917
526 1 0.556806 0.614247 0.252498
535 1 0.691631 0.507377 0.251113
643 1 0.663358 0.522865 0.251186
265 1 0.824028 0.376412 0.304094
34 2 0.203664 0.683651 0.275498
61 2 0.113297 0.737676 0.238944
628 1 0.0973176 0.764913 0.275844
43 2 0.43039 0.63696 0.271472
70 2 0.345589 0.72612 0.247235
250 1 0.31938 0.705965 0.293857
520 1 0.226898 0.788247 0.24972
574 1 0.275461 0.612757 0.250085
637 1 0.3358 0.825536 0.270251
259 1 0.537414 0.695959 0.299253
529 1 0.481954 0.698269 0.239337
583 1 0.50398 0.678779 0.24089
52 2 0.660746 0.608747 0.280302
79 2 0.60562 0.745677 0.252953
538 1 0.728765 0.703421 0.262652
592 1 0.693561 0.601031 0.24257
646 1 0.586873 0.861353 0.264517
268 1 0.759384 0.657398 0.306618
352 1 0.294675 0.174246 0.320809
460 1 0.185371 0.219633 0.320787
469 1 0.50766 0.23744 0.304378
361 1 0.569647 0.139856 0.319271
478 1 0.748459 0.174768 0.322991
370 1 0.860654 0.155502 0.322308
109 2 0.361076 0.344794 0.357481
163 2 0.258305 0.334221 0.319586
406 1 0.407832 0.22865 0.328654
118 2 0.513379 0.310765 0.340546
172 2 0.570219 0.359806 0.294437
127 2 0.767212 0.249492 0.359319
181 2 0.722396 0.303148 0.313731
415 1 0.641277 0.228607 0.338017
424 1 0.874249 0.264287 0.338523
112 2 0.275091 0.558329 0.343817
166 2 0.310332 0.564232 0.29555
355 1 0.395637 0.356392 0.319634
409 1 0.402596 0.480423 0.31768
463 1 0.222139 0.46745 0.315992
121 2 0.562719 0.551297 0.352084
175 2 0.526431 0.563569 0.303824
472 1 0.523775 0.441472 0.324672
130 2 0.71025 0.486238 0.347592
184 2 0.775094 0.532139 0.305381
364 1 0.630424 0.381903 0.332893
418 1 0.638397 0.489615 0.312916
481 1 0.801714 0.372377 0.34315
373 1 0.918175 0.397437 0.335003
427 1 0.840834 0.485604 0.33818
358 1 0.34907 0.659027 0.327038
466 1 0.222325 0.646061 0.317296
475 1 0.486022 0.654943 0.334386
367 1 0.610705 0.655642 0.329409
484 1 0.803222 0.60168 0.339051
376 1 0.860994 0.699178 0.326231
115 2 0.245159 0.787135 0.363101
169 2 0.18952 0.774074 0.318309
412 1 0.318768 0.78918 0.325178
124 2 0.402339 0.74591 0.358178
178 2 0.433727 0.746991 0.308568
133 2 0.665734 0.752939 0.351741
187 2 0.645732 0.760504 0.304631
421 1 0.540341 0.767877 0.334569
430 1 0.762283 0.766592 0.323493
2 2 0.22425 0.262655 0.405641
82 2 0.25282 0.221851 0.357642
11 2 0.470026 0.254826 0.393176
91 2 0.535486 0.161745 0.356861
488 1 0.212872 0.147804 0.388424
497 1 0.554821 0.147296 0.396915
20 2 0.682702 0.187085 0.402216
100 2 0.694188 0.115224 0.355088
506 1 0.7348 0.0747369 0.39037
5 2 0.225892 0.503345 0.407178
85 2 0.211333 0.423873 0.362803
542 1 0.153461 0.299481 0.372182
14 2 0.365255 0.39958 0.407906
94 2 0.475615 0.428943 0.376928
298 1 0.379386 0.197908 0.365009
491 1 0.290965 0.333859 0.378311
551 1 0.418535 0.325292 0.361375
596 1 0.33645 0.286515 0.385159
307 1 0.577064 0.305453 0.358822
500 1 0.565876 0.367492 0.394646
605 1 0.545398 0.309968 0.36407
23 2 0.647206 0.458319 0.41626
103 2 0.670682 0.354055 0.381756
509 1 0.796944 0.328539 0.378653
560 1 0.596199 0.24973 0.37924
614 1 0.728519 0.240077 0.367721
316 1 0.813808 0.169208 0.353992
545 1 0.132811 0.524832 0.376843
301 1 0.324873 0.483612 0.348741
554 1 0.390909 0.464525 0.372389
599 1 0.276702 0.544322 0.37005
310 1 0.488971 0.533221 0.345377
608 1 0.545774 0.647495 0.370406
563 1 0.68175 0.497257 0.36753
617 1 0.644821 0.484097 0.377448
319 1 0.737936 0.46602 0.365641
8 2 0.184256 0.752172 0.421272
88 2 0.197422 0.643905 0.382171
548 1 0.0917724 0.699645 0.399909
17 2 0.415188 0.690112 0.410006
97 2 0.408755 0.586147 0.370289
304 1 0.27601 0.697133 0.350174
494 1 0.296596 0.617519 0.408828
557 1 0.384485 0.735405 0.376201
602 1 0.209806 0.772865 0.38224
313 1 0.558469 0.681298 0.364696
503 1 0.543623 0.646626 0.373916
611 1 0.521969 0.660754 0.374289
26 2 0.583296 0.661298 0.409029
106 2 0.703969 0.61243 0.376595
512 1 0.82993 0.634865 0.373114
566 1 0.601668 0.735793 0.375943
620 1 0.665548 0.74844 0.392675
322 1 0.758279 0.700512 0.354544
326 1 0.236978 0.265769 0.450836
434 1 0.14807 0.322771 0.431551
191 2 0.360898 0.256332 0.431655
218 1 0.260724 0.365922 0.430607
380 1 0.183662 0.429157 0.449296
200 2 0.589574 0.30425 0.428173
227 1 0.437511 0.355714 0.419305
335 1 0.450464 0.226309 0.461631
389 1 0.492365 0.351411 0.456734
443 1 0.371308 0.385204 0.446985
236 1 0.728004 0.314538 0.422448
344 1 0.671049 0.207713 0.445888
452 1 0.641636 0.424844 0.437655
209 2 0.79944 0.214627 0.434798
398 1 0.815846 0.333353 0.454751
329 1 0.23429 0.544368 0.466641
194 2 0.348695 0.519497 0.444075
221 1 0.139787 0.599489 0.416994
203 2 0.499594 0.462769 0.429295
230 1 0.400502 0.539491 0.406826
338 1 0.464092 0.519975 0.470442
239 1 0.756997 0.539782 0.410785
347 1 0.652285 0.470326 0.434883
212 2 0.782623 0.439623 0.433631
332 1 0.226432 0.769119 0.431284
437 1 0.144852 0.541108 0.438733