ITEM: TIMESTEP
0
ITEM: NUMBER OF ATOMS
648
ITEM: BOX BOUNDS pp pp pp
-2.8010100000000002e+00 1.6298990000000000e+01
-2.8010100000000002e+00 1.6298990000000000e+01
-8.4785000000000004e+00 5.3521500000000003e+01
ITEM: ATOMS id type xs ys zs
559 1 0.66211 0.303615 0.111439
607 1 0.621104 0.591115 0.115696
502 1 0.588455 0.601052 0.115509
619 1 0.71206 0.66145 0.116464
487 1 0.361386 0.154095 0.160216
541 1 0.216334 0.178872 0.140552
496 1 0.523377 0.178037 0.138486
505 1 0.714089 0.124131 0.12715
1 2 0.290641 0.261018 0.155833
217 1 0.238566 0.363392 0.175278
550 1 0.38008 0.27012 0.126828
595 1 0.323412 0.352988 0.12975
10 2 0.445031 0.250386 0.161888
604 1 0.543949 0.315815 0.144104
553 1 0.403195 0.385072 0.125612
19 2 0.642775 0.216997 0.13784
499 1 0.605278 0.394017 0.140515
235 1 0.682831 0.320854 0.158752
613 1 0.702014 0.315306 0.156776
562 1 0.62085 0.382553 0.133507
508 1 0.86818 0.285718 0.162088
544 1 0.147086 0.405416 0.156151
4 2 0.227288 0.49159 0.165109
13 2 0.364713 0.414565 0.160793
490 1 0.34523 0.403523 0.123302
598 1 0.32709 0.53877 0.144324
22 2 0.554018 0.409481 0.174876
238 1 0.665827 0.500937 0.175433
616 1 0.798925 0.59923 0.15521
511 1 0.827921 0.548077 0.149794
7 2 0.177032 0.731086 0.16495
547 1 0.10893 0.672948 0.139137
220 1 0.207027 0.603398 0.145673
16 2 0.32613 0.665992 0.16003
493 1 0.327474 0.630115 0.124009
556 1 0.365113 0.676694 0.12443
601 1 0.250832 0.7333 0.132455
331 1 0.204064 0.735748 0.168989
205 2 0.481985 0.705651 0.168842
610 1 0.565514 0.773428 0.125782
565 1 0.593308 0.788568 0.129105
232 1 0.414961 0.792456 0.167107
25 2 0.619775 0.679023 0.143094
241 1 0.671775 0.774556 0.166778
208 2 0.722927 0.150963 0.177626
343 1 0.650367 0.147486 0.213154
154 2 0.773846 0.196728 0.219086
433 1 0.163706 0.343336 0.2076
190 2 0.3443 0.311751 0.200406
325 1 0.223449 0.252962 0.192765
199 2 0.590951 0.239733 0.183414
226 1 0.475601 0.329966 0.194865
145 2 0.565126 0.256384 0.230329
280 1 0.445827 0.30562 0.225974
334 1 0.465927 0.211067 0.203503
388 1 0.523448 0.39646 0.22451
211 2 0.696588 0.394148 0.191681
289 1 0.701993 0.251923 0.221806
451 1 0.692644 0.271415 0.211617
397 1 0.775512 0.272373 0.183284
157 2 0.755643 0.359023 0.234757
193 2 0.329841 0.546744 0.199675
379 1 0.254911 0.424902 0.209209
442 1 0.398929 0.429644 0.215802
328 1 0.206296 0.540772 0.218157
202 2 0.55932 0.568676 0.184303
148 2 0.546492 0.532654 0.233313
283 1 0.423177 0.557848 0.230955
337 1 0.466152 0.487265 0.200434
634 1 0.411112 0.535866 0.233887
346 1 0.743515 0.48737 0.218453
454 1 0.654082 0.586203 0.216584
400 1 0.785675 0.512604 0.181325
292 1 0.811275 0.587231 0.210479
436 1 0.120458 0.633962 0.210752
382 1 0.192953 0.604908 0.183037
439 1 0.120047 0.766351 0.199558
142 2 0.247039 0.694774 0.209455
340 1 0.37957 0.722139 0.196227
229 1 0.583757 0.614914 0.180567
151 2 0.491343 0.684626 0.219677
445 1 0.446358 0.604711 0.190574
349 1 0.588344 0.742103 0.193365
214 2 0.7169 0.632797 0.182219
391 1 0.622157 0.642778 0.216326
160 2 0.742896 0.683162 0.227627
295 1 0.670692 0.765333 0.22042
457 1 0.663341 0.790527 0.219209
403 1 0.752632 0.759626 0.194805
223 1 0.162497 0.847455 0.179825
196 2 0.299498 0.821162 0.179901
385 1 0.217708 0.831752 0.214235
448 1 0.362947 0.832992 0.214067
394 1 0.477067 0.800915 0.201184
568 1 0.292056 0.168102 0.250772
244 1 0.379395 0.189433 0.292529
577 1 0.540834 0.134064 0.261956
73 2 0.672326 0.18041 0.257578
586 1 0.748619 0.0816623 0.271407
271 1 0.168418 0.390745 0.236713
622 1 0.162921 0.327068 0.268019
136 2 0.345624 0.361336 0.248783
28 2 0.260006 0.238739 0.283984
55 2 0.223418 0.275575 0.235852
514 1 0.301435 0.345505 0.265247
631 1 0.337871 0.312312 0.257153
37 2 0.521002 0.215444 0.292475
64 2 0.424692 0.207123 0.253096
523 1 0.555871 0.254979 0.254524
580 1 0.481984 0.329859 0.257848
76 2 0.598612 0.39839 0.245642
532 1 0.746285 0.284069 0.270916
640 1 0.664739 0.30968 0.262934
58 2 0.151673 0.595061 0.248957
625 1 0.163192 0.566745 0.290874
139 2 0.301411 0.560605 0.247087
31 2 0.218007 0.452003 0.270159
571 1 0.328531 0.461317 0.245234
247 1 0.323081 0.404644 0.290575
67 2 0.444793 0.470865 0.268452
49 2 0.720767 0.422533 0.277827
589 1 0.798752 0.412734 0.247564
256 1 0.602199 0.497233 0.273848
535 1 0.66877 0.520899 0.247632
643 1 0.662678 0.520654 0.248854
592 1 0.672546 0.554715 0.242472
61 2 0.125088 0.754399 0.239191
628 1 0.104889 0.778592 0.277557
274 1 0.284084 0.63412 0.245324
517 1 0.305784 0.635383 0.255133
34 2 0.219021 0.708547 0.276508
70 2 0.34173 0.757986 0.246207
574 1 0.275174 0.645787 0.244365
286 1 0.473469 0.752546 0.241101
526 1 0.567766 0.612401 0.248948
43 2 0.437144 0.643663 0.265218
529 1 0.471917 0.743973 0.241664
583 1 0.507364 0.697779 0.23587
52 2 0.666556 0.61673 0.277337
79 2 0.603987 0.753303 0.252768
538 1 0.730699 0.719216 0.263004
277 1 0.223293 0.825145 0.253484
520 1 0.215381 0.819803 0.255934
637 1 0.299921 0.811863 0.280788
646 1 0.584631 0.867661 0.264788
352 1 0.309585 0.189244 0.319639
361 1 0.588075 0.144105 0.318651
46 2 0.760684 0.175134 0.298396
478 1 0.75852 0.187975 0.323298
370 1 0.874099 0.193327 0.31497
460 1 0.194385 0.222298 0.320793
163 2 0.259319 0.340674 0.32332
355 1 0.390556 0.336306 0.320743
40 2 0.401604 0.323741 0.294932
469 1 0.519223 0.240488 0.303675
406 1 0.429472 0.203132 0.329088
118 2 0.506943 0.314207 0.338788
172 2 0.568392 0.374847 0.295588
253 1 0.646698 0.212352 0.300389
181 2 0.715501 0.317392 0.315473
415 1 0.645102 0.23323 0.339677
364 1 0.622352 0.382672 0.338947
262 1 0.857005 0.249216 0.309726
265 1 0.826205 0.367328 0.304325
424 1 0.885965 0.260867 0.346461
481 1 0.808935 0.375018 0.343427
112 2 0.278937 0.571632 0.346288
166 2 0.335354 0.558835 0.298102
463 1 0.230526 0.474626 0.315744
301 1 0.335845 0.445008 0.341508
409 1 0.417957 0.453254 0.310494
121 2 0.568107 0.554702 0.351985
175 2 0.527482 0.578272 0.303584
472 1 0.523063 0.454471 0.328322
310 1 0.41035 0.546179 0.334751
130 2 0.709587 0.479251 0.349032
184 2 0.76645 0.536801 0.308158
418 1 0.634565 0.49129 0.313157
373 1 0.925121 0.410725 0.341108
427 1 0.838076 0.492616 0.341185
169 2 0.186804 0.76515 0.321924
250 1 0.335932 0.698667 0.296163
358 1 0.358481 0.661322 0.324813
466 1 0.233148 0.644245 0.314586
412 1 0.319109 0.78638 0.323603
304 1 0.265474 0.703649 0.348935
259 1 0.514549 0.71513 0.307016
475 1 0.48692 0.653021 0.337625
178 2 0.454394 0.740059 0.30877
421 1 0.531495 0.771292 0.344451
268 1 0.750353 0.662469 0.309588
367 1 0.639979 0.636898 0.32588
133 2 0.660305 0.738445 0.352268
187 2 0.627837 0.760559 0.306154
430 1 0.750771 0.773887 0.32382
322 1 0.72682 0.690103 0.349741
484 1 0.811421 0.612326 0.338745
376 1 0.854111 0.710991 0.323519
488 1 0.197277 0.161829 0.388288
91 2 0.539777 0.16591 0.355586
497 1 0.551084 0.145758 0.395754
20 2 0.677244 0.185409 0.402228
100 2 0.698957 0.114187 0.357
506 1 0.719478 0.0667737 0.393269
316 1 0.822708 0.154563 0.353973
542 1 0.169942 0.30792 0.372018
109 2 0.364845 0.331276 0.361467
2 2 0.238926 0.270408 0.40487
82 2 0.257715 0.215281 0.357697
14 2 0.356816 0.393257 0.408651
298 1 0.386882 0.201363 0.366272
491 1 0.297082 0.335018 0.373737
596 1 0.348155 0.284872 0.381871
11 2 0.48153 0.260389 0.392719
551 1 0.418093 0.35726 0.363044
307 1 0.583975 0.294638 0.36807
500 1 0.591745 0.345476 0.390153
605 1 0.539855 0.308566 0.35961
127 2 0.768204 0.252833 0.359961
103 2 0.693455 0.354749 0.38604
560 1 0.606635 0.261663 0.377699
614 1 0.735387 0.237011 0.36898
509 1 0.817811 0.309798 0.37468
545 1 0.134334 0.522414 0.377212
5 2 0.240237 0.510454 0.405287
85 2 0.213898 0.432343 0.361313
554 1 0.340787 0.461701 0.373523
599 1 0.27766 0.552871 0.367641
230 1 0.382483 0.539754 0.409014
94 2 0.500958 0.432946 0.38249
97 2 0.417426 0.580195 0.37361
503 1 0.548099 0.56261 0.379261
563 1 0.689551 0.493038 0.363367
617 1 0.654499 0.474194 0.374237
319 1 0.746402 0.465146 0.368326
88 2 0.188751 0.645836 0.381559
548 1 0.0944353 0.688469 0.407039
115 2 0.248602 0.790538 0.364034
124 2 0.397069 0.744961 0.356702
494 1 0.297214 0.639044 0.407977
557 1 0.398249 0.745142 0.371399
602 1 0.205389 0.774418 0.380776
608 1 0.55055 0.613155 0.372829
17 2 0.422177 0.706286 0.406578
313 1 0.561324 0.677462 0.37085
611 1 0.524837 0.663271 0.374552
26 2 0.580165 0.647888 0.41164
566 1 0.540243 0.723866 0.38079
106 2 0.705144 0.602655 0.378592
620 1 0.64409 0.764173 0.403568
512 1 0.822947 0.644966 0.373679
197 2 0.326193 0.842852 0.405933
335 1 0.450174 0.1999 0.463111
434 1 0.159465 0.328537 0.429972
326 1 0.243644 0.258918 0.449817
191 2 0.374184 0.244899 0.43172
218 1 0.258336 0.36409 0.433879
443 1 0.371755 0.380466 0.4452
200 2 0.589185 0.311165 0.429797
227 1 0.435975 0.353661 0.418831
389 1 0.475034 0.325157 0.457379
236 1 0.731268 0.303483 0.424746
344 1 0.665168 0.20445 0.445915
209 2 0.793214 0.215917 0.432987
398 1 0.806342 0.330661 0.455173
380 1 0.182701 0.444402 0.445733
221 1 0.153602 0.595667 0.421703
437 1 0.160606 0.556835 0.435019
194 2 0.339389 0.520702 0.447108
572 1 0.279699 0.425249 0.468212
203 2 0.492072 0.454793 0.436155
392 1 0.461257 0.589473 0.435165
149 2 0.59744 0.537024 0.467677
23 2 0.633998 0.470995 0.414871
452 1 0.633577 0.443832 0.437853
239 1 0.758476 0.532257 0.413991
347 1 0.632754 0.453758 0.4389
212 2 0.765836 0.440365 0.436312
401 1 0.799014 0.563375 0.449951
8 2 0.203214 0.746227 0.419407
332 1 0.240504 0.765368 0.426725
383 1 0.250418 0.638666 0.443338
446 1 0.397535 0.63936 0.462737
143 2 0.343244 0.763629 0.452463
341 1 0.44382 0.712325 0.423083
152 2 0.513026 0.707656 0.4598
455 1 0.632218 0.652463 0.448099
215 2 0.73978 0.654959 0.423551
242 1 0.648995 0.754858 0.42833
404 1 0.758748 0.774756 0.441185
161 2 0.749538 0.672585 0.468937
440 1 0.152634 0.823964 0.447534
224 1 0.170841 0.867721 0.421389
278 1 0.168106 0.843919 0.464586
386 1 0.262928 0.876286 0.444476
449 1 0.395172 0.877335 0.437471
206 2 0.536858 0.807048 0.420858
350 1 0.595923 0.825795 0.456445
233 1 0.431156 0.837714 0.428688
395 1 0.478172 0.839423 0.463255
458 1 0.702992 0.877919 0.449653
569 1 0.30964 0.15576 0.504933
578 1 0.537455 0.136322 0.523251
74 2 0.661925 0.15757 0.508699
587 1 0.738792 0.054387 0.51285
623 1 0.183996 0.324356 0.516245
56 2 0.215456 0.236139 0.489595
137 2 0.352998 0.293846 0.47794
272 1 0.212009 0.358709 0.475659
515 1 0.32955 0.293929 0.510582
65 2 0.444585 0.20683 0.50483
632 1 0.467569 0.340418 0.497597
146 2 0.575513 0.254831 0.477388
281 1 0.467282 0.341142 0.496946
524 1 0.542999 0.294267 0.518024
290 1 0.711999 0.266958 0.47964
533 1 0.779995 0.218814 0.523871
590 1 0.787189 0.340263 0.492243
641 1 0.683679 0.278687 0.48133
155 2 0.740399 0.237484 0.47683
50 2 0.68767 0.320001 0.518657
59 2 0.197542 0.552879 0.473325
626 1 0.155335 0.54842 0.510529
329 1 0.227411 0.547828 0.473783
140 2 0.333616 0.583251 0.493455
32 2 0.269735 0.432096 0.509367
338 1 0.463365 0.538161 0.475721
68 2 0.422213 0.440263 0.482622
581 1 0.41363 0.492057 0.511365
77 2 0.56107 0.428223 0.508286
635 1 0.408732 0.49586 0.52397
527 1 0.554741 0.599444 0.496474
293 1 0.724047 0.553523 0.482873
536 1 0.695986 0.472365 0.49109
158 2 0.677708 0.401109 0.475039
266 1 0.738333 0.437273 0.5255
53 2 0.670819 0.553319 0.523162
62 2 0.180351 0.719303 0.470842
629 1 0.100264 0.717085 0.502559
275 1 0.292724 0.671339 0.482541
518 1 0.301474 0.65309 0.489945
71 2 0.397839 0.742094 0.499802
521 1 0.264221 0.769606 0.49806
575 1 0.293294 0.676715 0.489562
35 2 0.207902 0.667679 0.518066
284 1 0.534799 0.625507 0.492228
530 1 0.524153 0.636254 0.490922
584 1 0.531401 0.639246 0.492745
44 2 0.46797 0.615011 0.526494
80 2 0.636688 0.703997 0.498883
539 1 0.772919 0.623116 0.510858
593 1 0.655428 0.627183 0.490803
296 1 0.692673 0.784215 0.472691
638 1 0.377985 0.863449 0.507146
287 1 0.374245 0.854096 0.482249
647 1 0.554957 0.805222 0.492263
353 1 0.288743 0.161484 0.570651
362 1 0.595168 0.18649 0.571788
47 2 0.749892 0.118407 0.547254
263 1 0.863751 0.158463 0.561525
29 2 0.25244 0.224176 0.536108
461 1 0.22798 0.261189 0.577091
164 2 0.273375 0.366508 0.556684
245 1 0.377873 0.248495 0.542078
407 1 0.379397 0.23597 0.581645
356 1 0.396891 0.334045 0.57069
38 2 0.48871 0.229904 0.551113
470 1 0.501539 0.270424 0.572584
41 2 0.423957 0.372641 0.532956
173 2 0.580908 0.361057 0.556811
254 1 0.621507 0.21597 0.542284
182 2 0.714469 0.265025 0.567485
482 1 0.773727 0.39703 0.560503
371 1 0.881368 0.224458 0.584853
425 1 0.836164 0.276349 0.553361
374 1 0.835909 0.339456 0.587951
317 1 0.876825 0.230251 0.585981
464 1 0.19827 0.430367 0.585499
167 2 0.322777 0.550709 0.54186
248 1 0.222783 0.483586 0.551784
410 1 0.373698 0.459222 0.567027
176 2 0.516036 0.50569 0.556283
257 1 0.571842 0.549735 0.549186
644 1 0.682168 0.429079 0.536758
419 1 0.64068 0.472036 0.571781
131 2 0.754188 0.538138 0.578849
185 2 0.81596 0.50576 0.533897
428 1 0.864498 0.466101 0.571927
170 2 0.170527 0.734478 0.565386
251 1 0.311681 0.685156 0.545319
359 1 0.352642 0.635927 0.575554
467 1 0.219708 0.611245 0.561784
413 1 0.301989 0.767548 0.572813
260 1 0.55642 0.667682 0.556114
179 2 0.431311 0.735439 0.55924
422 1 0.552819 0.789599 0.562668
368 1 0.646156 0.62232 0.572794
485 1 0.778843 0.63301 0.548106
188 2 0.675547 0.720811 0.546671
431 1 0.756458 0.764902 0.577477
269 1 0.837184 0.733352 0.552887
377 1 0.806189 0.654298 0.584171
543 1 0.150199 0.193399 0.640042
489 1 0.325898 0.174274 0.644235
299 1 0.363756 0.16889 0.614178
92 2 0.485553 0.162664 0.595083
498 1 0.550398 0.151967 0.628627
308 1 0.566726 0.146623 0.624822
606 1 0.557075 0.162742 0.627475
479 1 0.770078 0.184315 0.604529
101 2 0.781791 0.155011 0.594299
507 1 0.763634 0.0840745 0.626907
615 1 0.78335 0.0953535 0.62947
21 2 0.683294 0.174868 0.639802
492 1 0.179723 0.324443 0.631492
83 2 0.246072 0.213676 0.614406
110 2 0.317496 0.35074 0.604484
597 1 0.328473 0.303675 0.636304
552 1 0.445489 0.310233 0.606415
119 2 0.549246 0.332582 0.6072
501 1 0.502975 0.34316 0.625431
12 2 0.447292 0.233204 0.639768
416 1 0.643093 0.234244 0.604688
365 1 0.681054 0.365357 0.590094
128 2 0.755629 0.305797 0.618933
510 1 0.794077 0.395852 0.600014
561 1 0.696528 0.309217 0.632217
546 1 0.104438 0.534736 0.642408
86 2 0.206113 0.458356 0.627161
113 2 0.279563 0.533461 0.591679
302 1 0.339694 0.484127 0.606724
473 1 0.560343 0.493412 0.601785
95 2 0.462769 0.448041 0.599611
555 1 0.452813 0.428256 0.619531
609 1 0.536092 0.550462 0.635568
98 2 0.409455 0.575019 0.626482
504 1 0.533914 0.54719 0.634985
104 2 0.67766 0.43357 0.611827
311 1 0.720236 0.481928 0.620305
564 1 0.660041 0.480131 0.627929
618 1 0.666582 0.517887 0.646254
320 1 0.798269 0.414977 0.599546
89 2 0.191782 0.627646 0.627458
549 1 0.100706 0.710103 0.612046
305 1 0.265619 0.667816 0.592134
603 1 0.2726 0.730261 0.638574
116 2 0.225342 0.766108 0.607589
125 2 0.379321 0.721673 0.607932
476 1 0.503193 0.774994 0.599598
122 2 0.512222 0.629875 0.594196
558 1 0.434861 0.674806 0.629787
612 1 0.480514 0.691195 0.633925
567 1 0.583823 0.711886 0.622014
314 1 0.645223 0.652116 0.620025
107 2 0.65417 0.601015 0.614624
513 1 0.761399 0.65943 0.604415
621 1 0.700826 0.689896 0.643934
323 1 0.748644 0.65626 0.594849
134 2 0.631244 0.744943 0.591375
345 1 0.656182 0.174737 0.683452
435 1 0.159958 0.332082 0.683968
3 2 0.236433 0.258475 0.661547
327 1 0.250183 0.284293 0.704007
192 2 0.374866 0.303295 0.685621
219 1 0.230293 0.386109 0.65985
201 2 0.585598 0.281553 0.666574
336 1 0.483332 0.223664 0.689932
390 1 0.497386 0.345019 0.700695
237 1 0.728128 0.284116 0.676082
453 1 0.604396 0.387566 0.69021
210 2 0.756949 0.260316 0.677278
6 2 0.197476 0.536339 0.672522
600 1 0.297139 0.557049 0.647604
495 1 0.304223 0.559393 0.648822
15 2 0.354439 0.433941 0.649293
381 1 0.244804 0.411751 0.696748
195 2 0.351979 0.528588 0.694352
228 1 0.43295 0.418629 0.672247
24 2 0.556142 0.430788 0.65068
204 2 0.518841 0.494427 0.695194
240 1 0.737559 0.465253 0.670047
348 1 0.661364 0.509503 0.701112
213 2 0.709901 0.406722 0.659829
216 2 0.732879 0.585746 0.674062
402 1 0.787932 0.498644 0.703346
9 2 0.141948 0.764828 0.647794
333 1 0.156917 0.792277 0.697959
222 1 0.23379 0.666976 0.670947
438 1 0.235158 0.67522 0.672975
18 2 0.367149 0.668573 0.663029
198 2 0.274064 0.797925 0.673006
342 1 0.394365 0.754431 0.697103
447 1 0.305486 0.656658 0.70331
231 1 0.456139 0.633946 0.664869
207 2 0.491998 0.770298 0.665755
393 1 0.435349 0.636154 0.703089
27 2 0.587707 0.647269 0.658602
456 1 0.633949 0.642223 0.700238
243 1 0.628874 0.776693 0.663131
405 1 0.716226 0.715011 0.68429
225 1 0.147547 0.870443 0.669829
387 1 0.224427 0.886541 0.701743
234 1 0.39807 0.819913 0.665835
450 1 0.341012 0.866743 0.701805
351 1 0.581687 0.840754 0.692037
396 1 0.464767 0.851156 0.697673
570 1 0.318215 0.166608 0.747911
579 1 0.53385 0.130466 0.758891
75 2 0.656328 0.183724 0.759638
588 1 0.735804 0.0795667 0.762221
156 2 0.732036 0.174707 0.716907
273 1 0.193203 0.356785 0.73044
57 2 0.208318 0.232087 0.738399
138 2 0.347624 0.319962 0.735626
66 2 0.445531 0.200095 0.737459
147 2 0.594885 0.258216 0.715995
282 1 0.480936 0.328843 0.747598
525 1 0.48636 0.333377 0.750645
582 1 0.486676 0.333757 0.7508
291 1 0.717801 0.286184 0.740002
534 1 0.769687 0.25991 0.761503
159 2 0.719468 0.378284 0.709313
399 1 0.812611 0.278036 0.715553
591 1 0.818748 0.365943 0.741723
60 2 0.194217 0.503922 0.723184
519 1 0.158142 0.536513 0.760422
444 1 0.397916 0.40982 0.708599
330 1 0.234017 0.566444 0.719397
573 1 0.293881 0.458973 0.727828
141 2 0.320225 0.566526 0.749539
339 1 0.451289 0.573502 0.737418
69 2 0.428925 0.471547 0.733428
78 2 0.587409 0.412311 0.740468
150 2 0.584797 0.5794 0.737372
294 1 0.737081 0.497392 0.737705
537 1 0.707582 0.497345 0.736068
384 1 0.181284 0.677269 0.708791
276 1 0.135072 0.610524 0.738649
63 2 0.130389 0.758855 0.739112
144 2 0.276919 0.772976 0.721856
576 1 0.266297 0.667879 0.738469
285 1 0.52053 0.740597 0.764056
72 2 0.400047 0.706464 0.74318
153 2 0.533718 0.730143 0.713364
531 1 0.537969 0.685261 0.764096
585 1 0.53536 0.667035 0.757771
459 1 0.662167 0.783503 0.713105
81 2 0.652049 0.726102 0.749041
594 1 0.755246 0.635971 0.744391
162 2 0.744243 0.619703 0.721714
297 1 0.657098 0.773602 0.712072
441 1 0.124124 0.871585 0.723804
279 1 0.130792 0.87363 0.725593
288 1 0.399218 0.825978 0.728987
639 1 0.43962 0.822204 0.750801
648 1 0.656358 0.849141 0.754481
246 1 0.323646 0.138655 0.799863
48 2 0.782028 0.157928 0.789349
372 1 0.873297 0.161144 0.81787
624 1 0.171819 0.310729 0.768371
516 1 0.175799 0.317899 0.773931
633 1 0.397378 0.271454 0.775066
30 2 0.273465 0.237261 0.780171
165 2 0.308918 0.343308 0.816071
462 1 0.246679 0.200671 0.819623
39 2 0.508305 0.24192 0.779383
174 2 0.578789 0.373497 0.791025
408 1 0.408813 0.219772 0.811677
357 1 0.44173 0.345977 0.80413
642 1 0.636563 0.284136 0.785082
255 1 0.61999 0.201841 0.799864
51 2 0.719813 0.391769 0.766419
183 2 0.719818 0.296822 0.804782
363 1 0.619212 0.201885 0.803679
264 1 0.873679 0.213399 0.811305
627 1 0.163527 0.528836 0.777196
33 2 0.245327 0.423547 0.766241
168 2 0.303334 0.544759 0.800022
249 1 0.329307 0.562244 0.812849
465 1 0.200668 0.457894 0.806479
636 1 0.407262 0.499875 0.773832
42 2 0.415392 0.408576 0.775523
177 2 0.555908 0.52878 0.796511
411 1 0.409052 0.46643 0.817793
645 1 0.721538 0.417594 0.766249
258 1 0.614637 0.557825 0.804887
186 2 0.70822 0.461865 0.813505
267 1 0.796217 0.509226 0.798563
54 2 0.710831 0.561562 0.772357
486 1 0.741059 0.59226 0.822205
630 1 0.0754486 0.705605 0.769779
36 2 0.199227 0.65876 0.773746
171 2 0.16456 0.750094 0.813805
522 1 0.203928 0.795074 0.769794
252 1 0.319084 0.731275 0.782011
360 1 0.399788 0.661685 0.814313
468 1 0.277487 0.674028 0.815043
528 1 0.574757 0.627336 0.766469
45 2 0.443125 0.62181 0.783525
261 1 0.553364 0.778864 0.800119
180 2 0.406092 0.787855 0.809496
540 1 0.762349 0.680437 0.764842
270 1 0.781275 0.650573 0.7917
189 2 0.637481 0.684327 0.797041
432 1 0.747608 0.728212 0.820362
414 1 0.2753 0.835232 0.799911
354 1 0.339835 0.131217 0.825523
93 2 0.52609 0.18315 0.829037
102 2 0.757491 0.141307 0.835934
480 1 0.765759 0.188892 0.83129
318 1 0.818326 0.173964 0.867377
84 2 0.223139 0.264544 0.853297
111 2 0.312798 0.374462 0.868433
300 1 0.340761 0.215859 0.845655
471 1 0.521039 0.210867 0.831153
120 2 0.443064 0.307004 0.844524
309 1 0.581194 0.250722 0.861976
105 2 0.592261 0.387635 0.865284
129 2 0.710459 0.282768 0.854476
417 1 0.604515 0.297981 0.826263
366 1 0.637229 0.374107 0.833039
483 1 0.797949 0.369136 0.833725
426 1 0.848842 0.259836 0.844128
87 2 0.177608 0.413479 0.845463
114 2 0.171748 0.574408 0.828105
303 1 0.295349 0.465129 0.835548
99 2 0.319884 0.575687 0.853445
96 2 0.4513 0.462974 0.864739
123 2 0.474577 0.594455 0.838633
312 1 0.564633 0.528753 0.877819
474 1 0.517603 0.402102 0.8261
420 1 0.575148 0.496715 0.839009
132 2 0.683692 0.532004 0.859391
321 1 0.732561 0.407336 0.862906
375 1 0.904011 0.426442 0.835358
429 1 0.802342 0.491092 0.839505
90 2 0.218843 0.700416 0.857114
306 1 0.300955 0.797559 0.834169
126 2 0.384459 0.723555 0.854141
477 1 0.506267 0.729936 0.836423
108 2 0.589668 0.653393 0.865306
369 1 0.610581 0.634957 0.834511
324 1 0.71577 0.66012 0.852878
135 2 0.631274 0.776871 0.835522
378 1 0.832813 0.661141 0.834569
117 2 0.267546 0.82809 0.840454
315 1 0.544492 0.817471 0.861698
423 1 0.516691 0.850311 0.827309
ITEM: TIMESTEP
100
ITEM: NUMBER OF ATOMS
648
ITEM: BOX BOUNDS pp pp pp
-2.8010100000000002e+00 1.6298990000000000e+01
-2.8010100000000002e+00 1.6298990000000000e+01
-8.4785000000000004e+00 5.3521500000000003e+01
ITEM: ATOMS id type xs ys zs
559 1 0.659137 0.306437 0.112198
607 1 0.619719 0.592648 0.116409
502 1 0.594594 0.602382 0.115855
619 1 0.713848 0.659173 0.117485
487 1 0.361009 0.154368 0.16156
541 1 0.216351 0.179214 0.140319
496 1 0.520973 0.174767 0.137019
505 1 0.711803 0.125286 0.126506
1 2 0.290441 0.261305 0.155911
217 1 0.238171 0.363307 0.175755
550 1 0.381243 0.27182 0.12738
595 1 0.322296 0.346051 0.128181
10 2 0.445236 0.249535 0.161926
604 1 0.542041 0.313512 0.141497
553 1 0.401483 0.387768 0.125651
19 2 0.639806 0.216599 0.136931
499 1 0.618437 0.399455 0.140055
235 1 0.681748 0.320583 0.159807
613 1 0.683471 0.30845 0.164204
562 1 0.604801 0.380103 0.139896
508 1 0.871671 0.286728 0.164703
544 1 0.145108 0.403938 0.157921
4 2 0.227567 0.490552 0.165156
13 2 0.364874 0.414899 0.161213
490 1 0.346863 0.402936 0.124371
598 1 0.327802 0.538888 0.144442
22 2 0.554605 0.406831 0.172667
238 1 0.662602 0.504221 0.169476
616 1 0.79981 0.594161 0.155884
511 1 0.828509 0.543007 0.151346
7 2 0.176787 0.729403 0.164923
547 1 0.11311 0.669199 0.138123
220 1 0.211208 0.601338 0.144942
16 2 0.3279 0.667473 0.159661
493 1 0.330599 0.62941 0.123874
556 1 0.367019 0.674759 0.123997
601 1 0.249531 0.736729 0.13282
331 1 0.201997 0.732306 0.17017
205 2 0.482845 0.705843 0.169583
610 1 0.571115 0.775579 0.126203
565 1 0.594843 0.7897 0.129313
232 1 0.41164 0.794921 0.167597
25 2 0.621355 0.680511 0.143554
241 1 0.673721 0.774141 0.166896
208 2 0.722419 0.150487 0.177605
343 1 0.649534 0.14856 0.212648
154 2 0.774398 0.195158 0.218916
433 1 0.161926 0.344647 0.207447
190 2 0.341904 0.311592 0.20042
325 1 0.221681 0.253514 0.19297
199 2 0.597587 0.24844 0.182724
226 1 0.473505 0.330771 0.19597
145 2 0.563531 0.255334 0.230393
280 1 0.444432 0.306174 0.225966
334 1 0.46549 0.210869 0.203912
388 1 0.518968 0.398515 0.226187
211 2 0.693348 0.399409 0.193827
289 1 0.70092 0.253209 0.220957
451 1 0.69553 0.265943 0.214908
397 1 0.775432 0.272071 0.184748
157 2 0.759469 0.354337 0.235656
193 2 0.328324 0.547968 0.201099
379 1 0.253579 0.426842 0.209216
442 1 0.396959 0.43106 0.215717
328 1 0.205797 0.553553 0.218234
202 2 0.560937 0.566082 0.186082
148 2 0.547141 0.531164 0.23348
283 1 0.435804 0.550427 0.232274
337 1 0.46603 0.485831 0.200266
634 1 0.415615 0.563319 0.228903
346 1 0.750816 0.487274 0.220789
454 1 0.657026 0.57907 0.216998
400 1 0.780098 0.507985 0.182152
292 1 0.811029 0.587074 0.210301
436 1 0.116052 0.630843 0.211064
382 1 0.189235 0.602859 0.182219
439 1 0.114883 0.761533 0.199742
142 2 0.243515 0.691329 0.209208
340 1 0.375995 0.719433 0.195617
229 1 0.588311 0.614026 0.182247
151 2 0.485896 0.675738 0.218554
445 1 0.437586 0.600132 0.186306
349 1 0.588265 0.738453 0.191194
214 2 0.71614 0.632356 0.181565
391 1 0.621694 0.644438 0.217192
160 2 0.743051 0.682453 0.227647
295 1 0.666758 0.766276 0.219457
457 1 0.660481 0.787551 0.218237
403 1 0.752732 0.758061 0.194888
223 1 0.15953 0.841596 0.182458
196 2 0.296108 0.819557 0.180799
385 1 0.211577 0.824343 0.216142
448 1 0.367078 0.829825 0.21411
394 1 0.477212 0.797146 0.201208
568 1 0.291509 0.168443 0.250434
244 1 0.377516 0.18631 0.293036
577 1 0.542613 0.137554 0.260297
73 2 0.6743 0.182203 0.257222
586 1 0.746522 0.081353 0.272007
271 1 0.168486 0.396553 0.236444
622 1 0.163444 0.329949 0.268041
136 2 0.346428 0.363152 0.248074
28 2 0.260639 0.243325 0.284154
55 2 0.223935 0.277766 0.235639
514 1 0.310432 0.341035 0.2634
631 1 0.338723 0.312697 0.259166
37 2 0.52323 0.215702 0.292047
64 2 0.423119 0.207711 0.253462
523 1 0.55907 0.253041 0.254461
580 1 0.478445 0.326086 0.259134
76 2 0.600639 0.396552 0.245285
532 1 0.746916 0.285151 0.271808
640 1 0.666027 0.311916 0.263684
58 2 0.150646 0.591291 0.24841
625 1 0.164531 0.569983 0.290496
139 2 0.297129 0.559651 0.248147
31 2 0.215379 0.454012 0.270381
571 1 0.331197 0.476301 0.243874
247 1 0.312154 0.398257 0.290495
67 2 0.445022 0.470843 0.267627
49 2 0.723238 0.421336 0.277785
589 1 0.79767 0.417183 0.245475
256 1 0.600493 0.498169 0.273493
535 1 0.669813 0.522261 0.24799
643 1 0.659781 0.5236 0.248514
592 1 0.673508 0.553806 0.242831
61 2 0.129642 0.749817 0.239807
628 1 0.111171 0.783167 0.276594
274 1 0.294675 0.642208 0.246317
517 1 0.307138 0.639999 0.252996
34 2 0.219546 0.704155 0.276559
70 2 0.339026 0.765399 0.246117
574 1 0.288347 0.649715 0.246107
286 1 0.484994 0.744457 0.24008
526 1 0.567608 0.610439 0.2484
43 2 0.434039 0.645968 0.264516
529 1 0.470793 0.747817 0.241833
583 1 0.505167 0.698841 0.235156
52 2 0.665335 0.617935 0.277242
79 2 0.602349 0.753695 0.252159
538 1 0.729102 0.720793 0.263347
277 1 0.243615 0.832639 0.252252
520 1 0.212017 0.824738 0.258304
637 1 0.298853 0.811697 0.281074
646 1 0.586686 0.867588 0.264964
352 1 0.318265 0.200095 0.31821
361 1 0.590346 0.146194 0.318902
46 2 0.759635 0.175913 0.298345
478 1 0.756681 0.185858 0.323853
370 1 0.871345 0.207026 0.31313
460 1 0.197418 0.220659 0.320544
163 2 0.257544 0.340128 0.323358
355 1 0.39212 0.338385 0.322857
40 2 0.40003 0.318669 0.29558
469 1 0.520144 0.243404 0.303527
406 1 0.435996 0.195251 0.328557
118 2 0.506455 0.311706 0.338132
172 2 0.568545 0.375754 0.295265
253 1 0.646765 0.219652 0.301284
181 2 0.715772 0.319921 0.316425
415 1 0.643947 0.237016 0.341539
364 1 0.619577 0.383369 0.33914
262 1 0.85566 0.24787 0.309661
265 1 0.830504 0.363418 0.305733
424 1 0.88461 0.258283 0.346678
481 1 0.810004 0.374923 0.344567
112 2 0.280226 0.569767 0.346563
166 2 0.336168 0.558601 0.297881
463 1 0.230493 0.476483 0.315478
301 1 0.334585 0.443219 0.338967
409 1 0.416503 0.449572 0.309109
121 2 0.567537 0.55665 0.351988
175 2 0.525829 0.581535 0.304063
472 1 0.521307 0.45501 0.328287
310 1 0.411314 0.542692 0.334674
130 2 0.708965 0.476545 0.348841
184 2 0.763482 0.538728 0.308747
418 1 0.632857 0.491256 0.31315
373 1 0.923178 0.413745 0.341481
427 1 0.835657 0.494236 0.341567
169 2 0.187828 0.762439 0.323036
250 1 0.331543 0.695648 0.299246
358 1 0.356136 0.660584 0.325129
466 1 0.23076 0.640091 0.315101
412 1 0.319378 0.786946 0.324399
304 1 0.261356 0.701673 0.348675
259 1 0.50812 0.719702 0.308521
475 1 0.477116 0.65272 0.34021
178 2 0.45332 0.740366 0.309992
421 1 0.526462 0.77308 0.344996
268 1 0.762454 0.666925 0.306057
367 1 0.65924 0.624467 0.324994
133 2 0.659802 0.738864 0.351661
187 2 0.627116 0.755718 0.306298
430 1 0.749385 0.773082 0.324904
322 1 0.728615 0.688803 0.351442
484 1 0.815875 0.617082 0.337539
376 1 0.855286 0.716866 0.323028
488 1 0.196787 0.162789 0.388279
91 2 0.541116 0.165652 0.356184
497 1 0.548545 0.143153 0.396352
20 2 0.673548 0.184047 0.401905
100 2 0.700209 0.122982 0.357915
506 1 0.722055 0.0665717 0.392823
316 1 0.827989 0.14224 0.352146
542 1 0.171439 0.3094 0.371237
109 2 0.364118 0.334654 0.361394
2 2 0.237339 0.270302 0.405188
82 2 0.258052 0.214304 0.357237
14 2 0.36059 0.391097 0.409005
298 1 0.388736 0.200996 0.365911
491 1 0.292986 0.333103 0.374676
596 1 0.340736 0.284455 0.380982
11 2 0.480867 0.260746 0.392967
551 1 0.420745 0.356671 0.361222
307 1 0.579725 0.307309 0.369063
500 1 0.592784 0.349052 0.394808
605 1 0.535358 0.31722 0.35995
127 2 0.76531 0.25665 0.357343
103 2 0.696055 0.356235 0.387892
560 1 0.607283 0.267188 0.377695
614 1 0.739829 0.241888 0.369613
509 1 0.82359 0.311563 0.375876
545 1 0.134277 0.524275 0.378461
5 2 0.239736 0.51065 0.40522
85 2 0.216189 0.433343 0.361419
554 1 0.342991 0.46106 0.373507
599 1 0.27951 0.555119 0.3676
230 1 0.379442 0.535662 0.407912
94 2 0.504541 0.427983 0.381835
97 2 0.418897 0.578662 0.373397
503 1 0.551971 0.552557 0.379297
563 1 0.680668 0.482577 0.372656
617 1 0.658596 0.477512 0.373827
319 1 0.748626 0.471944 0.372607
88 2 0.189518 0.645709 0.382027
548 1 0.0949964 0.687823 0.408747
115 2 0.250339 0.794131 0.364985
124 2 0.393181 0.745118 0.357071
494 1 0.299758 0.641442 0.407473
557 1 0.403121 0.743682 0.370906
602 1 0.204301 0.780243 0.382335
608 1 0.54978 0.61956 0.373877
17 2 0.425542 0.70583 0.4065
313 1 0.560631 0.682902 0.369991
611 1 0.525605 0.666048 0.375677
26 2 0.580173 0.645515 0.411904
566 1 0.533814 0.725477 0.38212
106 2 0.70437 0.604167 0.378773
620 1 0.645614 0.760968 0.404567
512 1 0.823277 0.644714 0.373119
197 2 0.327334 0.839925 0.406352
335 1 0.455064 0.20704 0.464244
434 1 0.160756 0.3306 0.430246
326 1 0.243962 0.262778 0.450772
191 2 0.374713 0.244917 0.432021
218 1 0.256169 0.365561 0.433224
443 1 0.369702 0.382862 0.443442
200 2 0.586543 0.308709 0.428885