ITEM: TIMESTEP
0
ITEM: NUMBER OF ATOMS
648
ITEM: BOX BOUNDS pp pp pp
-3.8537499999999998e+00 2.3346250999999999e+01
-3.8537499999999998e+00 2.3346250999999999e+01
-3.8537499999999998e+00 2.3346250999999999e+01
ITEM: ATOMS id type xs ys zs
217 1 0.141682 0.141682 0.141682
226 1 0.390947 0.141682 0.141682
235 1 0.640211 0.141682 0.141682
433 1 0.203998 0.203998 0.141682
622 1 0.266314 0.266314 0.141682
442 1 0.453263 0.203998 0.141682
631 1 0.515579 0.266314 0.141682
451 1 0.702528 0.203998 0.141682
640 1 0.764844 0.266314 0.141682
220 1 0.141682 0.390947 0.141682
229 1 0.390947 0.390947 0.141682
568 1 0.328631 0.328631 0.141682
238 1 0.640211 0.390947 0.141682
577 1 0.577895 0.328631 0.141682
586 1 0.82716 0.328631 0.141682
436 1 0.203998 0.453263 0.141682
625 1 0.266314 0.515579 0.141682
445 1 0.453263 0.453263 0.141682
634 1 0.515579 0.515579 0.141682
454 1 0.702528 0.453263 0.141682
643 1 0.764844 0.515579 0.141682
223 1 0.141682 0.640211 0.141682
439 1 0.203998 0.702528 0.141682
232 1 0.390947 0.640211 0.141682
571 1 0.328631 0.577895 0.141682
448 1 0.453263 0.702528 0.141682
241 1 0.640211 0.640211 0.141682
457 1 0.702528 0.702528 0.141682
580 1 0.577895 0.577895 0.141682
589 1 0.82716 0.577895 0.141682
628 1 0.266314 0.764844 0.141682
574 1 0.328631 0.82716 0.141682
637 1 0.515579 0.764844 0.141682
583 1 0.577895 0.82716 0.141682
592 1 0.82716 0.82716 0.141682
646 1 0.764844 0.764844 0.141682
460 1 0.203998 0.141682 0.203998
595 1 0.266314 0.141682 0.266314
469 1 0.453263 0.141682 0.203998
604 1 0.515579 0.141682 0.266314
478 1 0.702528 0.141682 0.203998
613 1 0.764844 0.141682 0.266314
244 1 0.141682 0.203998 0.203998
406 1 0.141682 0.266314 0.266314
1 2 0.235156 0.235156 0.235156
136 2 0.297472 0.17284 0.17284
253 1 0.390947 0.203998 0.203998
271 1 0.328631 0.203998 0.266314
415 1 0.390947 0.266314 0.266314
541 1 0.328631 0.266314 0.203998
10 2 0.484421 0.235156 0.235156
145 2 0.546737 0.17284 0.17284
262 1 0.640211 0.203998 0.203998
280 1 0.577895 0.203998 0.266314
424 1 0.640211 0.266314 0.266314
550 1 0.577895 0.266314 0.203998
19 2 0.733686 0.235156 0.235156
154 2 0.796002 0.17284 0.17284
289 1 0.82716 0.203998 0.266314
559 1 0.82716 0.266314 0.203998
82 2 0.17284 0.297472 0.17284
325 1 0.266314 0.328631 0.203998
352 1 0.203998 0.328631 0.266314
463 1 0.203998 0.390947 0.203998
598 1 0.266314 0.390947 0.266314
91 2 0.422105 0.297472 0.17284
139 2 0.297472 0.422105 0.17284
163 2 0.359789 0.359789 0.235156
148 2 0.546737 0.422105 0.17284
334 1 0.515579 0.328631 0.203998
361 1 0.453263 0.328631 0.266314
472 1 0.453263 0.390947 0.203998
607 1 0.515579 0.390947 0.266314
100 2 0.671369 0.297472 0.17284
172 2 0.609053 0.359789 0.235156
370 1 0.702528 0.328631 0.266314
481 1 0.702528 0.390947 0.203998
157 2 0.796002 0.422105 0.17284
343 1 0.764844 0.328631 0.203998
616 1 0.764844 0.390947 0.266314
181 2 0.858318 0.359789 0.235156
247 1 0.141682 0.453263 0.203998
409 1 0.141682 0.515579 0.266314
4 2 0.235156 0.484421 0.235156
85 2 0.17284 0.546737 0.17284
94 2 0.422105 0.546737 0.17284
256 1 0.390947 0.453263 0.203998
274 1 0.328631 0.453263 0.266314
418 1 0.390947 0.515579 0.266314
544 1 0.328631 0.515579 0.203998
13 2 0.484421 0.484421 0.235156
103 2 0.671369 0.546737 0.17284
265 1 0.640211 0.453263 0.203998
283 1 0.577895 0.453263 0.266314
427 1 0.640211 0.515579 0.266314
553 1 0.577895 0.515579 0.203998
22 2 0.733686 0.484421 0.235156
292 1 0.82716 0.453263 0.266314
562 1 0.82716 0.515579 0.203998
250 1 0.141682 0.702528 0.203998
328 1 0.266314 0.577895 0.203998
355 1 0.203998 0.577895 0.266314
466 1 0.203998 0.640211 0.203998
601 1 0.266314 0.640211 0.266314
142 2 0.297472 0.671369 0.17284
166 2 0.359789 0.609053 0.235156
259 1 0.390947 0.702528 0.203998
277 1 0.328631 0.702528 0.266314
151 2 0.546737 0.671369 0.17284
337 1 0.515579 0.577895 0.203998
364 1 0.453263 0.577895 0.266314
475 1 0.453263 0.640211 0.203998
610 1 0.515579 0.640211 0.266314
175 2 0.609053 0.609053 0.235156
268 1 0.640211 0.702528 0.203998
286 1 0.577895 0.702528 0.266314
373 1 0.702528 0.577895 0.266314
484 1 0.702528 0.640211 0.203998
160 2 0.796002 0.671369 0.17284
295 1 0.82716 0.702528 0.266314
346 1 0.764844 0.577895 0.203998
619 1 0.764844 0.640211 0.266314
184 2 0.858318 0.609053 0.235156
412 1 0.141682 0.764844 0.266314
7 2 0.235156 0.733686 0.235156
88 2 0.17284 0.796002 0.17284
331 1 0.266314 0.82716 0.203998
358 1 0.203998 0.82716 0.266314
97 2 0.422105 0.796002 0.17284
421 1 0.390947 0.764844 0.266314
547 1 0.328631 0.764844 0.203998
16 2 0.484421 0.733686 0.235156
340 1 0.515579 0.82716 0.203998
367 1 0.453263 0.82716 0.266314
106 2 0.671369 0.796002 0.17284
376 1 0.702528 0.82716 0.266314
430 1 0.640211 0.764844 0.266314
556 1 0.577895 0.764844 0.203998
25 2 0.733686 0.733686 0.235156
349 1 0.764844 0.82716 0.203998
565 1 0.82716 0.764844 0.203998
169 2 0.359789 0.858318 0.235156
178 2 0.609053 0.858318 0.235156
187 2 0.858318 0.858318 0.235156
218 1 0.141682 0.141682 0.390947
227 1 0.390947 0.141682 0.390947
298 1 0.328631 0.141682 0.328631
236 1 0.640211 0.141682 0.390947
307 1 0.577895 0.141682 0.328631
316 1 0.82716 0.141682 0.328631
190 2 0.17284 0.17284 0.297472
379 1 0.203998 0.266314 0.328631
434 1 0.203998 0.203998 0.390947
487 1 0.266314 0.203998 0.328631
623 1 0.266314 0.266314 0.390947
109 2 0.359789 0.235156 0.359789
137 2 0.297472 0.17284 0.422105
199 2 0.422105 0.17284 0.297472
146 2 0.546737 0.17284 0.422105
388 1 0.453263 0.266314 0.328631
443 1 0.453263 0.203998 0.390947
496 1 0.515579 0.203998 0.328631
632 1 0.515579 0.266314 0.390947
118 2 0.609053 0.235156 0.359789
208 2 0.671369 0.17284 0.297472
397 1 0.702528 0.266314 0.328631
452 1 0.702528 0.203998 0.390947
155 2 0.796002 0.17284 0.422105
505 1 0.764844 0.203998 0.328631
641 1 0.764844 0.266314 0.390947
127 2 0.858318 0.235156 0.359789
221 1 0.141682 0.390947 0.390947
514 1 0.141682 0.328631 0.328631
55 2 0.235156 0.359789 0.359789
83 2 0.17284 0.297472 0.422105
193 2 0.17284 0.422105 0.297472
28 2 0.297472 0.297472 0.297472
92 2 0.422105 0.297472 0.422105
140 2 0.297472 0.422105 0.422105
202 2 0.422105 0.422105 0.297472
230 1 0.390947 0.390947 0.390947
301 1 0.328631 0.390947 0.328631
523 1 0.390947 0.328631 0.328631
569 1 0.328631 0.328631 0.390947
37 2 0.546737 0.297472 0.297472
64 2 0.484421 0.359789 0.359789
149 2 0.546737 0.422105 0.422105
101 2 0.671369 0.297472 0.422105
211 2 0.671369 0.422105 0.297472
239 1 0.640211 0.390947 0.390947
310 1 0.577895 0.390947 0.328631
532 1 0.640211 0.328631 0.328631
578 1 0.577895 0.328631 0.390947
46 2 0.796002 0.297472 0.297472
73 2 0.733686 0.359789 0.359789
158 2 0.796002 0.422105 0.422105
319 1 0.82716 0.390947 0.328631
587 1 0.82716 0.328631 0.390947
86 2 0.17284 0.546737 0.422105
382 1 0.203998 0.515579 0.328631
437 1 0.203998 0.453263 0.390947
490 1 0.266314 0.453263 0.328631
626 1 0.266314 0.515579 0.390947
31 2 0.297472 0.546737 0.297472
95 2 0.422105 0.546737 0.422105
112 2 0.359789 0.484421 0.359789
40 2 0.546737 0.546737 0.297472
391 1 0.453263 0.515579 0.328631
446 1 0.453263 0.453263 0.390947
499 1 0.515579 0.453263 0.328631
635 1 0.515579 0.515579 0.390947
104 2 0.671369 0.546737 0.422105
121 2 0.609053 0.484421 0.359789
400 1 0.702528 0.515579 0.328631
455 1 0.702528 0.453263 0.390947
49 2 0.796002 0.546737 0.297472
508 1 0.764844 0.453263 0.328631
644 1 0.764844 0.515579 0.390947
130 2 0.858318 0.484421 0.359789
224 1 0.141682 0.640211 0.390947
517 1 0.141682 0.577895 0.328631
58 2 0.235156 0.609053 0.359789
196 2 0.17284 0.671369 0.297472
440 1 0.203998 0.702528 0.390947
493 1 0.266314 0.702528 0.328631
143 2 0.297472 0.671369 0.422105
205 2 0.422105 0.671369 0.297472
233 1 0.390947 0.640211 0.390947
304 1 0.328631 0.640211 0.328631
526 1 0.390947 0.577895 0.328631
572 1 0.328631 0.577895 0.390947
67 2 0.484421 0.609053 0.359789
152 2 0.546737 0.671369 0.422105
449 1 0.453263 0.702528 0.390947
502 1 0.515579 0.702528 0.328631
214 2 0.671369 0.671369 0.297472
242 1 0.640211 0.640211 0.390947
313 1 0.577895 0.640211 0.328631
458 1 0.702528 0.702528 0.390947
535 1 0.640211 0.577895 0.328631
581 1 0.577895 0.577895 0.390947
76 2 0.733686 0.609053 0.359789
161 2 0.796002 0.671369 0.422105
322 1 0.82716 0.640211 0.328631
511 1 0.764844 0.702528 0.328631
590 1 0.82716 0.577895 0.390947
520 1 0.141682 0.82716 0.328631
89 2 0.17284 0.796002 0.422105
385 1 0.203998 0.764844 0.328631
629 1 0.266314 0.764844 0.390947
34 2 0.297472 0.796002 0.297472
98 2 0.422105 0.796002 0.422105
115 2 0.359789 0.733686 0.359789
529 1 0.390947 0.82716 0.328631
575 1 0.328631 0.82716 0.390947
43 2 0.546737 0.796002 0.297472
394 1 0.453263 0.764844 0.328631
638 1 0.515579 0.764844 0.390947
107 2 0.671369 0.796002 0.422105
124 2 0.609053 0.733686 0.359789
403 1 0.702528 0.764844 0.328631
538 1 0.640211 0.82716 0.328631
584 1 0.577895 0.82716 0.390947
52 2 0.796002 0.796002 0.297472
593 1 0.82716 0.82716 0.390947
647 1 0.764844 0.764844 0.390947
133 2 0.858318 0.733686 0.359789
61 2 0.235156 0.858318 0.359789
70 2 0.484421 0.858318 0.359789
79 2 0.733686 0.858318 0.359789
461 1 0.203998 0.141682 0.453263
596 1 0.266314 0.141682 0.515579
470 1 0.453263 0.141682 0.453263
605 1 0.515579 0.141682 0.515579
479 1 0.702528 0.141682 0.453263
614 1 0.764844 0.141682 0.515579
245 1 0.141682 0.203998 0.453263
407 1 0.141682 0.266314 0.515579
2 2 0.235156 0.235156 0.484421
191 2 0.17284 0.17284 0.546737
200 2 0.422105 0.17284 0.546737
254 1 0.390947 0.203998 0.453263
272 1 0.328631 0.203998 0.515579
416 1 0.390947 0.266314 0.515579
542 1 0.328631 0.266314 0.453263
11 2 0.484421 0.235156 0.484421
209 2 0.671369 0.17284 0.546737
263 1 0.640211 0.203998 0.453263
281 1 0.577895 0.203998 0.515579
425 1 0.640211 0.266314 0.515579
551 1 0.577895 0.266314 0.453263
20 2 0.733686 0.235156 0.484421
290 1 0.82716 0.203998 0.515579
560 1 0.82716 0.266314 0.453263
194 2 0.17284 0.422105 0.546737
326 1 0.266314 0.328631 0.453263
353 1 0.203998 0.328631 0.515579
464 1 0.203998 0.390947 0.453263
599 1 0.266314 0.390947 0.515579
29 2 0.297472 0.297472 0.546737
164 2 0.359789 0.359789 0.484421
203 2 0.422105 0.422105 0.546737
38 2 0.546737 0.297472 0.546737
335 1 0.515579 0.328631 0.453263
362 1 0.453263 0.328631 0.515579
473 1 0.453263 0.390947 0.453263
608 1 0.515579 0.390947 0.515579
173 2 0.609053 0.359789 0.484421
212 2 0.671369 0.422105 0.546737
371 1 0.702528 0.328631 0.515579
482 1 0.702528 0.390947 0.453263
47 2 0.796002 0.297472 0.546737
344 1 0.764844 0.328631 0.453263
617 1 0.764844 0.390947 0.515579
182 2 0.858318 0.359789 0.484421
248 1 0.141682 0.453263 0.453263
410 1 0.141682 0.515579 0.515579
5 2 0.235156 0.484421 0.484421
32 2 0.297472 0.546737 0.546737
257 1 0.390947 0.453263 0.453263
275 1 0.328631 0.453263 0.515579
419 1 0.390947 0.515579 0.515579
545 1 0.328631 0.515579 0.453263
14 2 0.484421 0.484421 0.484421
41 2 0.546737 0.546737 0.546737
266 1 0.640211 0.453263 0.453263
284 1 0.577895 0.453263 0.515579
428 1 0.640211 0.515579 0.515579
554 1 0.577895 0.515579 0.453263
23 2 0.733686 0.484421 0.484421
50 2 0.796002 0.546737 0.546737
293 1 0.82716 0.453263 0.515579
563 1 0.82716 0.515579 0.453263
251 1 0.141682 0.702528 0.453263
197 2 0.17284 0.671369 0.546737
329 1 0.266314 0.577895 0.453263
356 1 0.203998 0.577895 0.515579
467 1 0.203998 0.640211 0.453263
602 1 0.266314 0.640211 0.515579
167 2 0.359789 0.609053 0.484421
206 2 0.422105 0.671369 0.546737
260 1 0.390947 0.702528 0.453263
278 1 0.328631 0.702528 0.515579
338 1 0.515579 0.577895 0.453263
365 1 0.453263 0.577895 0.515579
476 1 0.453263 0.640211 0.453263
611 1 0.515579 0.640211 0.515579
176 2 0.609053 0.609053 0.484421
215 2 0.671369 0.671369 0.546737
269 1 0.640211 0.702528 0.453263
287 1 0.577895 0.702528 0.515579
374 1 0.702528 0.577895 0.515579
485 1 0.702528 0.640211 0.453263
296 1 0.82716 0.702528 0.515579
347 1 0.764844 0.577895 0.453263
620 1 0.764844 0.640211 0.515579
185 2 0.858318 0.609053 0.484421
413 1 0.141682 0.764844 0.515579
8 2 0.235156 0.733686 0.484421
332 1 0.266314 0.82716 0.453263
359 1 0.203998 0.82716 0.515579
35 2 0.297472 0.796002 0.546737
422 1 0.390947 0.764844 0.515579
548 1 0.328631 0.764844 0.453263
17 2 0.484421 0.733686 0.484421
44 2 0.546737 0.796002 0.546737
341 1 0.515579 0.82716 0.453263
368 1 0.453263 0.82716 0.515579
377 1 0.702528 0.82716 0.515579
431 1 0.640211 0.764844 0.515579
557 1 0.577895 0.764844 0.453263
26 2 0.733686 0.733686 0.484421
53 2 0.796002 0.796002 0.546737
350 1 0.764844 0.82716 0.453263
566 1 0.82716 0.764844 0.453263
170 2 0.359789 0.858318 0.484421
179 2 0.609053 0.858318 0.484421
188 2 0.858318 0.858318 0.484421
219 1 0.141682 0.141682 0.640211
462 1 0.203998 0.141682 0.702528
228 1 0.390947 0.141682 0.640211
299 1 0.328631 0.141682 0.577895
471 1 0.453263 0.141682 0.702528
237 1 0.640211 0.141682 0.640211
308 1 0.577895 0.141682 0.577895
480 1 0.702528 0.141682 0.702528
317 1 0.82716 0.141682 0.577895
246 1 0.141682 0.203998 0.702528
380 1 0.203998 0.266314 0.577895
435 1 0.203998 0.203998 0.640211
488 1 0.266314 0.203998 0.577895
624 1 0.266314 0.266314 0.640211
110 2 0.359789 0.235156 0.609053
138 2 0.297472 0.17284 0.671369
255 1 0.390947 0.203998 0.702528
543 1 0.328631 0.266314 0.702528
147 2 0.546737 0.17284 0.671369
389 1 0.453263 0.266314 0.577895
444 1 0.453263 0.203998 0.640211
497 1 0.515579 0.203998 0.577895
633 1 0.515579 0.266314 0.640211
119 2 0.609053 0.235156 0.609053
264 1 0.640211 0.203998 0.702528
398 1 0.702528 0.266314 0.577895
453 1 0.702528 0.203998 0.640211
552 1 0.577895 0.266314 0.702528
156 2 0.796002 0.17284 0.671369
506 1 0.764844 0.203998 0.577895
561 1 0.82716 0.266314 0.702528
642 1 0.764844 0.266314 0.640211
128 2 0.858318 0.235156 0.609053
222 1 0.141682 0.390947 0.640211
515 1 0.141682 0.328631 0.577895
56 2 0.235156 0.359789 0.609053
84 2 0.17284 0.297472 0.671369
327 1 0.266314 0.328631 0.702528
465 1 0.203998 0.390947 0.702528
93 2 0.422105 0.297472 0.671369
141 2 0.297472 0.422105 0.671369
231 1 0.390947 0.390947 0.640211
302 1 0.328631 0.390947 0.577895
524 1 0.390947 0.328631 0.577895
570 1 0.328631 0.328631 0.640211
65 2 0.484421 0.359789 0.609053
150 2 0.546737 0.422105 0.671369
336 1 0.515579 0.328631 0.702528
474 1 0.453263 0.390947 0.702528
102 2 0.671369 0.297472 0.671369
240 1 0.640211 0.390947 0.640211
311 1 0.577895 0.390947 0.577895
483 1 0.702528 0.390947 0.702528
533 1 0.640211 0.328631 0.577895
579 1 0.577895 0.328631 0.640211
74 2 0.733686 0.359789 0.609053
159 2 0.796002 0.422105 0.671369
320 1 0.82716 0.390947 0.577895
345 1 0.764844 0.328631 0.702528
588 1 0.82716 0.328631 0.640211
249 1 0.141682 0.453263 0.702528
87 2 0.17284 0.546737 0.671369
383 1 0.203998 0.515579 0.577895
438 1 0.203998 0.453263 0.640211
491 1 0.266314 0.453263 0.577895
627 1 0.266314 0.515579 0.640211
96 2 0.422105 0.546737 0.671369
113 2 0.359789 0.484421 0.609053
258 1 0.390947 0.453263 0.702528
546 1 0.328631 0.515579 0.702528
392 1 0.453263 0.515579 0.577895
447 1 0.453263 0.453263 0.640211
500 1 0.515579 0.453263 0.577895
636 1 0.515579 0.515579 0.640211
105 2 0.671369 0.546737 0.671369
122 2 0.609053 0.484421 0.609053
267 1 0.640211 0.453263 0.702528
401 1 0.702528 0.515579 0.577895
456 1 0.702528 0.453263 0.640211
555 1 0.577895 0.515579 0.702528
509 1 0.764844 0.453263 0.577895
564 1 0.82716 0.515579 0.702528
645 1 0.764844 0.515579 0.640211
131 2 0.858318 0.484421 0.609053
225 1 0.141682 0.640211 0.640211
252 1 0.141682 0.702528 0.702528
518 1 0.141682 0.577895 0.577895
59 2 0.235156 0.609053 0.609053
330 1 0.266314 0.577895 0.702528
441 1 0.203998 0.702528 0.640211
468 1 0.203998 0.640211 0.702528
494 1 0.266314 0.702528 0.577895
144 2 0.297472 0.671369 0.671369
234 1 0.390947 0.640211 0.640211
261 1 0.390947 0.702528 0.702528
305 1 0.328631 0.640211 0.577895
527 1 0.390947 0.577895 0.577895
573 1 0.328631 0.577895 0.640211
68 2 0.484421 0.609053 0.609053
153 2 0.546737 0.671369 0.671369
339 1 0.515579 0.577895 0.702528
450 1 0.453263 0.702528 0.640211
477 1 0.453263 0.640211 0.702528
503 1 0.515579 0.702528 0.577895
243 1 0.640211 0.640211 0.640211
270 1 0.640211 0.702528 0.702528
314 1 0.577895 0.640211 0.577895
459 1 0.702528 0.702528 0.640211
486 1 0.702528 0.640211 0.702528
536 1 0.640211 0.577895 0.577895
582 1 0.577895 0.577895 0.640211
77 2 0.733686 0.609053 0.609053
162 2 0.796002 0.671369 0.671369
323 1 0.82716 0.640211 0.577895
348 1 0.764844 0.577895 0.702528
512 1 0.764844 0.702528 0.577895
591 1 0.82716 0.577895 0.640211
521 1 0.141682 0.82716 0.577895
90 2 0.17284 0.796002 0.671369
333 1 0.266314 0.82716 0.702528
386 1 0.203998 0.764844 0.577895
630 1 0.266314 0.764844 0.640211
99 2 0.422105 0.796002 0.671369
116 2 0.359789 0.733686 0.609053
530 1 0.390947 0.82716 0.577895
549 1 0.328631 0.764844 0.702528
576 1 0.328631 0.82716 0.640211
342 1 0.515579 0.82716 0.702528
395 1 0.453263 0.764844 0.577895
639 1 0.515579 0.764844 0.640211
108 2 0.671369 0.796002 0.671369
125 2 0.609053 0.733686 0.609053
404 1 0.702528 0.764844 0.577895
539 1 0.640211 0.82716 0.577895
558 1 0.577895 0.764844 0.702528
585 1 0.577895 0.82716 0.640211
351 1 0.764844 0.82716 0.702528
567 1 0.82716 0.764844 0.702528
594 1 0.82716 0.82716 0.640211
648 1 0.764844 0.764844 0.640211
134 2 0.858318 0.733686 0.609053
62 2 0.235156 0.858318 0.609053
71 2 0.484421 0.858318 0.609053
80 2 0.733686 0.858318 0.609053
597 1 0.266314 0.141682 0.764844
300 1 0.328631 0.141682 0.82716
606 1 0.515579 0.141682 0.764844
309 1 0.577895 0.141682 0.82716
318 1 0.82716 0.141682 0.82716
615 1 0.764844 0.141682 0.764844
408 1 0.141682 0.266314 0.764844
3 2 0.235156 0.235156 0.733686
192 2 0.17284 0.17284 0.796002
381 1 0.203998 0.266314 0.82716
489 1 0.266314 0.203998 0.82716
201 2 0.422105 0.17284 0.796002
273 1 0.328631 0.203998 0.764844
417 1 0.390947 0.266314 0.764844
12 2 0.484421 0.235156 0.733686
390 1 0.453263 0.266314 0.82716
498 1 0.515579 0.203998 0.82716
210 2 0.671369 0.17284 0.796002
282 1 0.577895 0.203998 0.764844
399 1 0.702528 0.266314 0.82716
426 1 0.640211 0.266314 0.764844
21 2 0.733686 0.235156 0.733686
291 1 0.82716 0.203998 0.764844
507 1 0.764844 0.203998 0.82716
516 1 0.141682 0.328631 0.82716
195 2 0.17284 0.422105 0.796002
354 1 0.203998 0.328631 0.764844
600 1 0.266314 0.390947 0.764844
30 2 0.297472 0.297472 0.796002
165 2 0.359789 0.359789 0.733686
204 2 0.422105 0.422105 0.796002
303 1 0.328631 0.390947 0.82716
525 1 0.390947 0.328631 0.82716
39 2 0.546737 0.297472 0.796002
363 1 0.453263 0.328631 0.764844
609 1 0.515579 0.390947 0.764844
174 2 0.609053 0.359789 0.733686
213 2 0.671369 0.422105 0.796002
312 1 0.577895 0.390947 0.82716
372 1 0.702528 0.328631 0.764844
534 1 0.640211 0.328631 0.82716
48 2 0.796002 0.297472 0.796002
321 1 0.82716 0.390947 0.82716
618 1 0.764844 0.390947 0.764844
183 2 0.858318 0.359789 0.733686
411 1 0.141682 0.515579 0.764844
6 2 0.235156 0.484421 0.733686
384 1 0.203998 0.515579 0.82716
492 1 0.266314 0.453263 0.82716
33 2 0.297472 0.546737 0.796002
276 1 0.328631 0.453263 0.764844
420 1 0.390947 0.515579 0.764844
15 2 0.484421 0.484421 0.733686
42 2 0.546737 0.546737 0.796002
393 1 0.453263 0.515579 0.82716
501 1 0.515579 0.453263 0.82716
285 1 0.577895 0.453263 0.764844
402 1 0.702528 0.515579 0.82716
429 1 0.640211 0.515579 0.764844
24 2 0.733686 0.484421 0.733686
51 2 0.796002 0.546737 0.796002
294 1 0.82716 0.453263 0.764844
510 1 0.764844 0.453263 0.82716
519 1 0.141682 0.577895 0.82716
198 2 0.17284 0.671369 0.796002
357 1 0.203998 0.577895 0.764844
495 1 0.266314 0.702528 0.82716
603 1 0.266314 0.640211 0.764844
168 2 0.359789 0.609053 0.733686
207 2 0.422105 0.671369 0.796002
279 1 0.328631 0.702528 0.764844
306 1 0.328631 0.640211 0.82716
528 1 0.390947 0.577895 0.82716
366 1 0.453263 0.577895 0.764844
504 1 0.515579 0.702528 0.82716
612 1 0.515579 0.640211 0.764844
177 2 0.609053 0.609053 0.733686
216 2 0.671369 0.671369 0.796002
288 1 0.577895 0.702528 0.764844
315 1 0.577895 0.640211 0.82716
375 1 0.702528 0.577895 0.764844
537 1 0.640211 0.577895 0.82716
297 1 0.82716 0.702528 0.764844
324 1 0.82716 0.640211 0.82716
513 1 0.764844 0.702528 0.82716
621 1 0.764844 0.640211 0.764844
186 2 0.858318 0.609053 0.733686
414 1 0.141682 0.764844 0.764844
522 1 0.141682 0.82716 0.82716
9 2 0.235156 0.733686 0.733686
360 1 0.203998 0.82716 0.764844
387 1 0.203998 0.764844 0.82716
36 2 0.297472 0.796002 0.796002
423 1 0.390947 0.764844 0.764844
531 1 0.390947 0.82716 0.82716
18 2 0.484421 0.733686 0.733686
45 2 0.546737 0.796002 0.796002
369 1 0.453263 0.82716 0.764844
396 1 0.453263 0.764844 0.82716
378 1 0.702528 0.82716 0.764844
405 1 0.702528 0.764844 0.82716
432 1 0.640211 0.764844 0.764844
540 1 0.640211 0.82716 0.82716
27 2 0.733686 0.733686 0.733686
54 2 0.796002 0.796002 0.796002
171 2 0.359789 0.858318 0.733686
180 2 0.609053 0.858318 0.733686
189 2 0.858318 0.858318 0.733686
111 2 0.359789 0.235156 0.858318
120 2 0.609053 0.235156 0.858318
129 2 0.858318 0.235156 0.858318
57 2 0.235156 0.359789 0.858318
66 2 0.484421 0.359789 0.858318
75 2 0.733686 0.359789 0.858318
114 2 0.359789 0.484421 0.858318
123 2 0.609053 0.484421 0.858318
132 2 0.858318 0.484421 0.858318
60 2 0.235156 0.609053 0.858318
69 2 0.484421 0.609053 0.858318
78 2 0.733686 0.609053 0.858318
117 2 0.359789 0.733686 0.858318
126 2 0.609053 0.733686 0.858318
135 2 0.858318 0.733686 0.858318
63 2 0.235156 0.858318 0.858318
72 2 0.484421 0.858318 0.858318
81 2 0.733686 0.858318 0.858318
ITEM: TIMESTEP
100
ITEM: NUMBER OF ATOMS
648
ITEM: BOX BOUNDS pp pp pp
-3.8537499999999998e+00 2.3346250999999999e+01
-3.8537499999999998e+00 2.3346250999999999e+01
-3.8537499999999998e+00 2.3346250999999999e+01
ITEM: ATOMS id type xs ys zs
217 1 0.168235 0.19047 0.204294
226 1 0.363485 0.16858 0.161989
235 1 0.642798 0.184741 0.187181
433 1 0.220143 0.229609 0.135519
622 1 0.247595 0.253805 0.146856
442 1 0.481539 0.237699 0.147944
631 1 0.481661 0.237715 0.147935
451 1 0.735284 0.22337 0.138058
640 1 0.752432 0.258674 0.149022
220 1 0.128109 0.364316 0.185316
229 1 0.363032 0.355171 0.136801
568 1 0.363045 0.355192 0.136753
238 1 0.599027 0.355812 0.130942
577 1 0.59886 0.355584 0.130958
586 1 0.852973 0.370156 0.148005
436 1 0.238583 0.478466 0.146897
625 1 0.237755 0.477814 0.146236
445 1 0.483624 0.48602 0.119958
634 1 0.483539 0.485941 0.119883
454 1 0.74298 0.484125 0.141258
643 1 0.742983 0.484096 0.141265
223 1 0.184634 0.640635 0.183206
439 1 0.225462 0.737745 0.138165
232 1 0.36371 0.608566 0.135424
571 1 0.356976 0.593858 0.134692
448 1 0.488288 0.745009 0.139417
241 1 0.612032 0.608947 0.13374
457 1 0.68692 0.687177 0.139263
580 1 0.595669 0.594586 0.137462
589 1 0.864832 0.626213 0.143432
628 1 0.25814 0.754656 0.148582
574 1 0.370392 0.850852 0.151521
637 1 0.48829 0.745107 0.139396
583 1 0.620499 0.859326 0.140764
592 1 0.762804 0.764942 0.125903
646 1 0.761414 0.759247 0.130123
460 1 0.232397 0.135796 0.24126
595 1 0.256931 0.14445 0.26105
469 1 0.478813 0.142422 0.238342
604 1 0.490447 0.148774 0.255474
478 1 0.736219 0.135539 0.219271
613 1 0.754304 0.146074 0.257415
244 1 0.137903 0.228036 0.241181
406 1 0.143705 0.252337 0.261878
1 2 0.236502 0.237208 0.241581
136 2 0.278689 0.170064 0.172822
253 1 0.356753 0.214944 0.215862
271 1 0.377619 0.256016 0.254724
415 1 0.385956 0.265937 0.262142
541 1 0.335337 0.23009 0.233871
10 2 0.472987 0.238396 0.241636
145 2 0.548553 0.183009 0.188611
262 1 0.629444 0.218643 0.222782
280 1 0.601427 0.229764 0.250715
424 1 0.625185 0.256081 0.251477
550 1 0.604156 0.244781 0.230637
19 2 0.719531 0.229211 0.231732
154 2 0.804823 0.188205 0.187827
289 1 0.844568 0.255517 0.253991
559 1 0.855511 0.263503 0.262035
82 2 0.164693 0.285603 0.178036
325 1 0.247902 0.375634 0.253145
352 1 0.230005 0.340166 0.232625
463 1 0.223477 0.35822 0.217489
598 1 0.278713 0.392705 0.267294
91 2 0.397054 0.270356 0.162674
139 2 0.29078 0.404304 0.174454
163 2 0.378865 0.359839 0.226844
148 2 0.563935 0.443914 0.15095
334 1 0.498246 0.339679 0.229529
361 1 0.465833 0.339136 0.268907
472 1 0.475114 0.383853 0.21442
607 1 0.53435 0.425117 0.290768
100 2 0.657219 0.287413 0.165228
172 2 0.593795 0.364431 0.222954
370 1 0.711212 0.346494 0.224846
481 1 0.696209 0.359628 0.215918
157 2 0.771962 0.399554 0.175381
343 1 0.732672 0.328232 0.211811
616 1 0.781952 0.404107 0.276377
181 2 0.850777 0.348369 0.234623
247 1 0.139717 0.480199 0.237908
409 1 0.139773 0.480204 0.238024
4 2 0.232651 0.471655 0.244108
85 2 0.181578 0.543194 0.181388
94 2 0.446198 0.567034 0.155749
256 1 0.381714 0.460372 0.210303
274 1 0.334328 0.454447 0.264544
418 1 0.430763 0.536912 0.29106
544 1 0.33438 0.488684 0.235524
13 2 0.477956 0.478082 0.210634
103 2 0.678051 0.549903 0.167457
265 1 0.641057 0.466389 0.204244
283 1 0.564888 0.45098 0.251895
427 1 0.652915 0.516882 0.256571
553 1 0.602406 0.506033 0.213695
22 2 0.752534 0.493381 0.234053
292 1 0.844432 0.442436 0.217861
562 1 0.84805 0.532986 0.235279
250 1 0.1383 0.735364 0.216929
328 1 0.246038 0.594004 0.227148
355 1 0.226542 0.599358 0.243035
466 1 0.220958 0.618431 0.221726
601 1 0.267759 0.63881 0.277063
142 2 0.288679 0.656126 0.168545
166 2 0.362064 0.58893 0.228738
259 1 0.37557 0.685108 0.193316
277 1 0.342613 0.713716 0.230722
151 2 0.558413 0.681298 0.162279
337 1 0.515521 0.600656 0.211001
364 1 0.445411 0.560608 0.259745
475 1 0.482753 0.637498 0.211506
610 1 0.523061 0.651517 0.267644
175 2 0.607406 0.606784 0.230149
268 1 0.631303 0.719152 0.210438
286 1 0.578733 0.699184 0.26455
373 1 0.702045 0.576499 0.26934
484 1 0.723065 0.627482 0.213039
160 2 0.78537 0.669862 0.14529
295 1 0.834245 0.728231 0.231222
346 1 0.7584 0.593442 0.208037
619 1 0.782986 0.670482 0.307716
184 2 0.841379 0.631205 0.230704
412 1 0.146223 0.75353 0.253524
7 2 0.231136 0.71741 0.229559
88 2 0.189689 0.806169 0.188893
331 1 0.254267 0.844063 0.255527
358 1 0.263032 0.853353 0.263385
97 2 0.405549 0.770441 0.176616
421 1 0.408011 0.775638 0.277785
547 1 0.329587 0.733807 0.217661
16 2 0.497458 0.746994 0.233287
340 1 0.522238 0.844684 0.240252
367 1 0.446745 0.837462 0.231219
106 2 0.670435 0.783181 0.142401
376 1 0.733281 0.846777 0.24097
430 1 0.670341 0.784393 0.307613
556 1 0.594072 0.762452 0.202977
25 2 0.727186 0.725865 0.216457
349 1 0.72811 0.834595 0.225911
565 1 0.830373 0.734083 0.237494
169 2 0.347925 0.841168 0.237295
178 2 0.638536 0.845314 0.228408
187 2 0.808385 0.810323 0.189254
218 1 0.196143 0.196803 0.396035
227 1 0.365456 0.141786 0.357279
298 1 0.365586 0.142043 0.357698
236 1 0.605733 0.132475 0.359673
307 1 0.596931 0.1318 0.347062
316 1 0.862705 0.156859 0.370607
190 2 0.177008 0.174704 0.304541
379 1 0.23599 0.233327 0.351323
434 1 0.218002 0.218683 0.378022
487 1 0.254888 0.251082 0.368077
623 1 0.275086 0.279391 0.3864
109 2 0.367745 0.235955 0.354289
137 2 0.29437 0.174335 0.409918
199 2 0.395245 0.162295 0.272541
146 2 0.540667 0.171634 0.415476
388 1 0.471123 0.264995 0.341085
443 1 0.457272 0.20535 0.386745
496 1 0.500037 0.224393 0.341525
632 1 0.533665 0.275012 0.420222
118 2 0.606305 0.225422 0.348415
208 2 0.659094 0.154118 0.279998
397 1 0.705795 0.223229 0.332211
452 1 0.704606 0.205088 0.350263
155 2 0.780007 0.181991 0.392061
505 1 0.721544 0.210226 0.330928
641 1 0.784336 0.284838 0.402032
127 2 0.856369 0.244382 0.349198
221 1 0.139538 0.365919 0.355288
514 1 0.139571 0.36601 0.355335
55 2 0.232329 0.374409 0.350847
83 2 0.176533 0.296582 0.407258
193 2 0.157456 0.393028 0.268322
28 2 0.304312 0.307862 0.29401
92 2 0.433793 0.28925 0.423102
140 2 0.295088 0.424519 0.425205
202 2 0.43118 0.430731 0.292164
230 1 0.397027 0.398699 0.383674
301 1 0.36602 0.382267 0.357199
523 1 0.38563 0.36187 0.355523
569 1 0.312997 0.320026 0.395285
37 2 0.550496 0.300803 0.296827
64 2 0.483958 0.363246 0.361136
149 2 0.560455 0.42056 0.421455
101 2 0.683112 0.283996 0.396871
211 2 0.678375 0.419897 0.280378
239 1 0.659665 0.419697 0.417531
310 1 0.60003 0.385015 0.33257
532 1 0.640395 0.344738 0.333467
578 1 0.567777 0.314446 0.392009
46 2 0.768147 0.30105 0.298283
73 2 0.740599 0.381206 0.372774
158 2 0.836994 0.437273 0.411403
319 1 0.832758 0.378703 0.328922
587 1 0.825838 0.330951 0.377853
86 2 0.14568 0.574696 0.442436
382 1 0.215781 0.508377 0.347541
437 1 0.231912 0.472275 0.368271
490 1 0.249818 0.472431 0.353429
626 1 0.29669 0.54622 0.410168
31 2 0.291614 0.546711 0.303225
95 2 0.414978 0.552601 0.426154
112 2 0.359887 0.482673 0.355957
40 2 0.536342 0.541298 0.286279
391 1 0.461419 0.508856 0.350168
446 1 0.436891 0.44124 0.401821
499 1 0.509246 0.463266 0.349004
635 1 0.5417 0.536789 0.40471
104 2 0.654633 0.530826 0.423751
121 2 0.608246 0.480125 0.33805
400 1 0.699632 0.522666 0.323392
455 1 0.67263 0.439218 0.417818
49 2 0.79428 0.568606 0.304882
508 1 0.760339 0.472779 0.342694
644 1 0.803608 0.545003 0.40018
130 2 0.846568 0.470285 0.306336
224 1 0.130312 0.632525 0.366807
517 1 0.125856 0.596338 0.350583
58 2 0.217011 0.600372 0.361293
196 2 0.160665 0.657774 0.279905
440 1 0.225773 0.701747 0.342617
493 1 0.230728 0.707874 0.339033
143 2 0.290748 0.673419 0.406092
205 2 0.422552 0.67026 0.274213
233 1 0.416945 0.65345 0.422073
304 1 0.347939 0.63638 0.329109
526 1 0.384174 0.592704 0.333263
572 1 0.310278 0.561876 0.4023
67 2 0.477205 0.607036 0.349282
152 2 0.53734 0.653682 0.429424
449 1 0.438471 0.662073 0.423065
502 1 0.49229 0.722855 0.335251
214 2 0.673278 0.668771 0.292971
242 1 0.655783 0.666724 0.419316
313 1 0.578037 0.624974 0.331901
458 1 0.662661 0.673581 0.423313
535 1 0.628811 0.580138 0.331768
581 1 0.561082 0.557218 0.400907
76 2 0.718561 0.604972 0.372651
161 2 0.821163 0.650445 0.400899
322 1 0.870542 0.635589 0.322065
511 1 0.759624 0.695701 0.342506
590 1 0.802476 0.561896 0.413106
520 1 0.150939 0.850531 0.375169
89 2 0.183369 0.76712 0.394098
385 1 0.194406 0.769567 0.301229
629 1 0.279856 0.783702 0.404401
34 2 0.296118 0.765788 0.304208
98 2 0.418249 0.827814 0.42563
115 2 0.385045 0.729953 0.36755
529 1 0.378127 0.824889 0.330729
575 1 0.328936 0.821694 0.378933
43 2 0.573198 0.798337 0.299038
394 1 0.472732 0.740932 0.335571
638 1 0.538021 0.803395 0.394507