ITEM: TIMESTEP
0
ITEM: NUMBER OF ATOMS
648
ITEM: BOX BOUNDS pp pp pp
-3.8537499999999998e+00 2.3346250999999999e+01
-3.8537499999999998e+00 2.3346250999999999e+01
-3.8537499999999998e+00 2.3346250999999999e+01
ITEM: ATOMS id type xs ys zs
433 1 0.215278 0.231624 0.136794
451 1 0.733049 0.22546 0.138852
229 1 0.365634 0.352341 0.136781
568 1 0.365635 0.352343 0.136782
238 1 0.596814 0.361304 0.130732
577 1 0.59696 0.361378 0.130729
445 1 0.484509 0.488172 0.11905
634 1 0.484497 0.488163 0.119053
232 1 0.363016 0.600119 0.135693
571 1 0.359046 0.5917 0.135875
241 1 0.606526 0.602705 0.138805
457 1 0.681575 0.684182 0.135118
580 1 0.600675 0.597248 0.140335
160 2 0.780828 0.665258 0.133842
589 1 0.865343 0.632461 0.140605
439 1 0.227458 0.734459 0.141105
448 1 0.491992 0.74584 0.141926
637 1 0.491994 0.745834 0.141925
106 2 0.672258 0.781426 0.140856
592 1 0.760973 0.75703 0.127286
646 1 0.760976 0.757033 0.127283
583 1 0.626946 0.860492 0.139413
460 1 0.232498 0.135957 0.242801
595 1 0.252491 0.142849 0.257908
478 1 0.733482 0.136394 0.217874
244 1 0.138691 0.228012 0.241198
406 1 0.141195 0.249415 0.262084
217 1 0.160444 0.197438 0.210606
622 1 0.245167 0.255069 0.148283
1 2 0.235843 0.235981 0.242401
136 2 0.272608 0.168432 0.169504
226 1 0.361245 0.175569 0.17319
253 1 0.335637 0.21965 0.215806
271 1 0.379323 0.261569 0.258373
415 1 0.380305 0.262359 0.259472
541 1 0.331959 0.221756 0.218243
91 2 0.393799 0.265536 0.16335
199 2 0.388911 0.168203 0.26879
442 1 0.479353 0.236274 0.149672
631 1 0.479339 0.236261 0.149667
469 1 0.473867 0.146274 0.243234
604 1 0.483053 0.149847 0.253856
10 2 0.47259 0.241684 0.244902
145 2 0.544198 0.18132 0.189983
235 1 0.641016 0.182389 0.183636
262 1 0.618238 0.224603 0.228119
280 1 0.607794 0.230741 0.238156
424 1 0.619645 0.241638 0.246859
550 1 0.607755 0.232798 0.236009
208 2 0.654463 0.152201 0.27607
640 1 0.750898 0.262642 0.151558
613 1 0.748184 0.146625 0.256146
19 2 0.715208 0.230214 0.232055
154 2 0.801378 0.189919 0.187882
289 1 0.840262 0.256348 0.254403
559 1 0.848784 0.262616 0.260855
220 1 0.106716 0.360998 0.185635
82 2 0.16605 0.293969 0.185835
325 1 0.243629 0.367923 0.248182
352 1 0.234988 0.351619 0.238103
463 1 0.232935 0.359052 0.231325
193 2 0.148382 0.381969 0.262802
598 1 0.297002 0.396394 0.272714
139 2 0.299718 0.406741 0.179837
163 2 0.389404 0.355278 0.225599
334 1 0.485884 0.344984 0.237799
361 1 0.476979 0.34237 0.271041
472 1 0.484307 0.385314 0.219244
100 2 0.654358 0.288843 0.16822
172 2 0.590163 0.373262 0.221628
481 1 0.699857 0.358203 0.214128
211 2 0.682926 0.414995 0.281199
586 1 0.851255 0.370987 0.149647
370 1 0.723494 0.346132 0.230771
157 2 0.771024 0.401333 0.17627
343 1 0.719093 0.338675 0.216679
616 1 0.78273 0.404746 0.278499
181 2 0.847031 0.348145 0.235006
247 1 0.137694 0.472525 0.238045
409 1 0.137683 0.472422 0.237985
436 1 0.238491 0.47241 0.151103
625 1 0.238493 0.472407 0.151107
4 2 0.229655 0.460651 0.250794
85 2 0.183528 0.536139 0.185491
256 1 0.382562 0.461196 0.212585
274 1 0.338768 0.469148 0.256745
544 1 0.335419 0.487333 0.239688
148 2 0.565414 0.45123 0.149567
94 2 0.449851 0.56762 0.154719
13 2 0.477723 0.478814 0.21015
283 1 0.562335 0.45651 0.251
364 1 0.446714 0.560412 0.261172
103 2 0.68051 0.552223 0.170419
265 1 0.641358 0.469907 0.210135
427 1 0.658593 0.512747 0.256582
553 1 0.607431 0.505859 0.219422
454 1 0.745711 0.485286 0.144229
643 1 0.745711 0.485286 0.144229
22 2 0.752433 0.494322 0.237283
292 1 0.844766 0.442604 0.218148
562 1 0.847473 0.53965 0.234434
223 1 0.193113 0.629914 0.191801
328 1 0.230667 0.60417 0.228803
355 1 0.228027 0.605255 0.229865
466 1 0.226116 0.60851 0.226418
7 2 0.231296 0.710921 0.231865
196 2 0.160378 0.648993 0.282116
142 2 0.291547 0.653352 0.169691
166 2 0.366125 0.580062 0.227854
259 1 0.382678 0.672889 0.186228
205 2 0.423287 0.668326 0.271893
151 2 0.565081 0.683797 0.165543
337 1 0.50742 0.614918 0.213931
475 1 0.494246 0.628099 0.213216
610 1 0.524873 0.65143 0.273226
175 2 0.601804 0.601515 0.234537
286 1 0.583864 0.700793 0.261381
373 1 0.697022 0.574155 0.277202
484 1 0.737403 0.620306 0.214116
346 1 0.748281 0.610496 0.212799
184 2 0.836206 0.638166 0.225317
250 1 0.13729 0.727638 0.2182
628 1 0.257151 0.752293 0.152397
412 1 0.147217 0.74341 0.260725
88 2 0.186631 0.800937 0.195642
331 1 0.255883 0.836493 0.255835
358 1 0.264072 0.843866 0.261591
574 1 0.370627 0.843948 0.151846
277 1 0.346204 0.716032 0.227565
97 2 0.407189 0.764719 0.175044
421 1 0.408017 0.769293 0.278275
547 1 0.336577 0.726348 0.223669
169 2 0.349195 0.832316 0.237987
16 2 0.500174 0.747428 0.236007
340 1 0.527106 0.845902 0.247759
367 1 0.447144 0.834642 0.23226
268 1 0.627182 0.737594 0.216103
556 1 0.607473 0.757927 0.210487
178 2 0.643907 0.843951 0.227012
295 1 0.838204 0.734028 0.23445
376 1 0.737676 0.854637 0.244556
25 2 0.730749 0.717149 0.212333
349 1 0.733589 0.843949 0.230871
565 1 0.836165 0.737386 0.236451
187 2 0.805547 0.808922 0.188232
236 1 0.599131 0.132242 0.354641
307 1 0.596257 0.132246 0.351219
218 1 0.197065 0.197928 0.39787
190 2 0.176613 0.174238 0.306813
379 1 0.234523 0.233097 0.354411
434 1 0.222891 0.222694 0.374478
487 1 0.257065 0.251736 0.368113
227 1 0.364034 0.144211 0.354603
298 1 0.364059 0.14422 0.354581
109 2 0.373646 0.238791 0.357552
137 2 0.296942 0.178226 0.409621
146 2 0.542227 0.173599 0.42115
388 1 0.47683 0.270971 0.340935
443 1 0.45389 0.196439 0.397551
496 1 0.503715 0.235753 0.34188
118 2 0.606337 0.223704 0.347665
397 1 0.709164 0.214728 0.332279
452 1 0.709262 0.212501 0.334568
505 1 0.713798 0.21496 0.331466
101 2 0.68733 0.282815 0.394426
155 2 0.776671 0.186132 0.389451
641 1 0.786908 0.285706 0.40463
316 1 0.861831 0.161722 0.368031
127 2 0.858552 0.249334 0.348773
221 1 0.137542 0.366029 0.353177
514 1 0.137547 0.366044 0.353182
623 1 0.278716 0.288286 0.389493
55 2 0.228152 0.380806 0.343671
83 2 0.179225 0.2992 0.405637
28 2 0.303769 0.30771 0.296205
140 2 0.292619 0.421657 0.428394
230 1 0.392701 0.3992 0.375167
301 1 0.372693 0.387499 0.35691
523 1 0.391547 0.368234 0.354923
569 1 0.306432 0.320727 0.394285
92 2 0.446386 0.287892 0.42518
37 2 0.556955 0.302698 0.294208
64 2 0.488122 0.36795 0.361555
149 2 0.568557 0.42471 0.419948
310 1 0.607086 0.385604 0.335218
532 1 0.642522 0.347084 0.338825
578 1 0.572587 0.318849 0.389013
46 2 0.765665 0.298727 0.302301
73 2 0.744258 0.383507 0.378506
319 1 0.832463 0.381581 0.3269
587 1 0.834206 0.339332 0.376336
382 1 0.223927 0.504411 0.350284
437 1 0.245028 0.480879 0.359461
490 1 0.249369 0.480498 0.356341
31 2 0.284498 0.553751 0.295421
626 1 0.303601 0.564223 0.406926
95 2 0.408716 0.555766 0.428374
112 2 0.353146 0.48551 0.354556
572 1 0.30747 0.569448 0.401375
607 1 0.534035 0.432728 0.289721
418 1 0.431787 0.535563 0.288165
202 2 0.430131 0.433192 0.292588
40 2 0.53204 0.540211 0.28963
391 1 0.459692 0.508289 0.358643
446 1 0.430004 0.439015 0.398802
499 1 0.507552 0.466601 0.356798
635 1 0.548155 0.543014 0.408149
581 1 0.557424 0.553808 0.405746
239 1 0.666049 0.431616 0.422715
104 2 0.65141 0.530312 0.428512
121 2 0.61113 0.482822 0.333471
400 1 0.704571 0.522114 0.331615
455 1 0.668593 0.435782 0.421247
158 2 0.848117 0.436522 0.409531
508 1 0.764015 0.476436 0.347228
644 1 0.80952 0.548301 0.404863
130 2 0.846938 0.47419 0.30524
590 1 0.79102 0.559749 0.420191
224 1 0.124719 0.628609 0.36943
517 1 0.121527 0.594986 0.36095
601 1 0.278146 0.648528 0.29112
58 2 0.211251 0.595791 0.370569
440 1 0.219187 0.697826 0.342102
493 1 0.223092 0.704732 0.336508
143 2 0.293061 0.672662 0.398236
304 1 0.349542 0.6373 0.328072
526 1 0.382059 0.594573 0.331682
67 2 0.474571 0.605125 0.35164
449 1 0.437186 0.659214 0.428354
214 2 0.673963 0.667951 0.289415
242 1 0.65687 0.677461 0.422224
313 1 0.574634 0.617773 0.336363
458 1 0.659365 0.680183 0.418892
535 1 0.627945 0.583134 0.335586
124 2 0.585808 0.707318 0.357625
269 1 0.656682 0.693987 0.420725
485 1 0.659813 0.663258 0.427488
619 1 0.776014 0.676457 0.312621
49 2 0.792276 0.574271 0.303305
76 2 0.717142 0.607722 0.376874
161 2 0.830688 0.64299 0.392721
511 1 0.768402 0.68516 0.327782
322 1 0.877908 0.637535 0.312421
520 1 0.151482 0.848346 0.371185
89 2 0.180399 0.766216 0.392653
385 1 0.200741 0.782797 0.293358
629 1 0.277735 0.78205 0.40225
61 2 0.239098 0.850125 0.346807
34 2 0.29874 0.756638 0.308064
98 2 0.416323 0.839546 0.426501
115 2 0.389259 0.730242 0.371853
529 1 0.380113 0.823793 0.330014
575 1 0.330118 0.822042 0.377484
502 1 0.485405 0.723336 0.339402
394 1 0.482997 0.727017 0.338471
638 1 0.553531 0.796937 0.397741
584 1 0.555417 0.794393 0.398239
70 2 0.474795 0.821594 0.328247
430 1 0.67591 0.775164 0.307326
43 2 0.581728 0.796782 0.300143
107 2 0.653256 0.787782 0.413107
403 1 0.686555 0.757049 0.329766
52 2 0.772203 0.779262 0.290123
593 1 0.817279 0.816866 0.363387
647 1 0.800275 0.797931 0.378394
79 2 0.723737 0.853769 0.345586
26 2 0.747934 0.718032 0.413981
133 2 0.860017 0.731811 0.331427
538 1 0.636417 0.866331 0.326948
470 1 0.477563 0.124252 0.482621
605 1 0.492612 0.125078 0.495963
461 1 0.225572 0.145209 0.466363
596 1 0.258194 0.153153 0.495413
245 1 0.143045 0.236518 0.468175
407 1 0.153775 0.266394 0.492098
2 2 0.24402 0.244822 0.471969
191 2 0.180656 0.187011 0.53598
254 1 0.371835 0.227936 0.464384
272 1 0.346782 0.21551 0.494691
542 1 0.358691 0.244973 0.463181
632 1 0.540811 0.273143 0.428666
11 2 0.461157 0.211518 0.495407
281 1 0.570953 0.19288 0.509514
38 2 0.551687 0.28474 0.528463
209 2 0.661211 0.168027 0.519403
263 1 0.624045 0.228781 0.451733
425 1 0.660581 0.26543 0.541281
551 1 0.612894 0.243029 0.451043
479 1 0.729539 0.143082 0.46069
614 1 0.742435 0.143801 0.468085
20 2 0.743001 0.23288 0.483287
290 1 0.83591 0.256754 0.521411
560 1 0.831328 0.249439 0.439733
194 2 0.184011 0.423721 0.530332
326 1 0.250101 0.344815 0.468375
353 1 0.220657 0.338609 0.495288
464 1 0.203209 0.392412 0.442737
416 1 0.418535 0.301432 0.521233
599 1 0.288956 0.416499 0.52882
29 2 0.317887 0.31077 0.524317
164 2 0.377959 0.365047 0.45352
203 2 0.423379 0.414917 0.545223
275 1 0.322772 0.421143 0.524646
335 1 0.522125 0.345147 0.455391
362 1 0.443652 0.322165 0.517256
473 1 0.476452 0.382978 0.460582
608 1 0.529223 0.386538 0.532351
284 1 0.568669 0.423699 0.517714
311 1 0.560312 0.383137 0.55855
173 2 0.622037 0.341152 0.469635
371 1 0.67909 0.333541 0.55097
533 1 0.643371 0.344993 0.566961
482 1 0.740549 0.372437 0.477944
47 2 0.770027 0.31037 0.56007
344 1 0.736922 0.330468 0.46422
182 2 0.830245 0.34127 0.469921
293 1 0.819225 0.428351 0.506516
248 1 0.137896 0.488375 0.468819
410 1 0.126906 0.500335 0.503547
5 2 0.222885 0.509033 0.449602
383 1 0.198215 0.515366 0.555255
32 2 0.29423 0.519189 0.539035
257 1 0.384785 0.463202 0.460837
419 1 0.407898 0.522922 0.531651
545 1 0.323728 0.515232 0.450055
14 2 0.487334 0.481674 0.470074
41 2 0.528817 0.551679 0.561555
338 1 0.513859 0.570633 0.470551
365 1 0.437388 0.553669 0.531585
392 1 0.435475 0.523985 0.552146
212 2 0.673417 0.428689 0.521397
266 1 0.665389 0.43499 0.428826
428 1 0.667535 0.53945 0.542302
554 1 0.587673 0.498389 0.495243
374 1 0.673192 0.549206 0.540091
401 1 0.672415 0.533911 0.562101
536 1 0.64406 0.558772 0.569025
617 1 0.772272 0.432031 0.538446
23 2 0.753748 0.475459 0.450276
50 2 0.765675 0.533978 0.549537
563 1 0.843503 0.500469 0.497308
347 1 0.749101 0.569981 0.46028
509 1 0.770988 0.439837 0.542146
86 2 0.142305 0.58622 0.460733
197 2 0.169473 0.674092 0.545527
329 1 0.237987 0.611514 0.464422
356 1 0.232156 0.598002 0.502435
467 1 0.204319 0.662341 0.446385
602 1 0.262784 0.663205 0.528317
167 2 0.33382 0.612219 0.488281
206 2 0.426506 0.66528 0.524676
278 1 0.320403 0.671591 0.564721
233 1 0.429053 0.655181 0.429041
152 2 0.533107 0.650975 0.433395
476 1 0.436759 0.653083 0.43419
611 1 0.538682 0.653057 0.551602
287 1 0.550662 0.669566 0.549032
503 1 0.533956 0.673955 0.568005
314 1 0.549713 0.651714 0.564092
176 2 0.609834 0.607272 0.497066
215 2 0.684227 0.69922 0.506898
296 1 0.790218 0.679908 0.514184
620 1 0.782743 0.675318 0.522063
185 2 0.835769 0.598951 0.491785
512 1 0.776007 0.680594 0.519856
251 1 0.145281 0.732686 0.476028
413 1 0.146997 0.732008 0.481355
8 2 0.239091 0.744459 0.484981
332 1 0.228592 0.833898 0.439305
359 1 0.247855 0.833951 0.525271
386 1 0.18523 0.771953 0.566177
260 1 0.361951 0.721962 0.466641
35 2 0.323087 0.769573 0.555514
422 1 0.426702 0.763844 0.546162
548 1 0.344215 0.748276 0.45837
170 2 0.318016 0.836052 0.467169
17 2 0.470913 0.747137 0.451505
44 2 0.533744 0.761968 0.546815
341 1 0.494843 0.835791 0.49113
368 1 0.463797 0.822135 0.515893
557 1 0.559033 0.765132 0.433919
395 1 0.439227 0.761537 0.551831
377 1 0.672664 0.798719 0.521369
431 1 0.670349 0.789126 0.522225
179 2 0.589523 0.837067 0.485524
404 1 0.672511 0.785571 0.5371
53 2 0.769873 0.774968 0.518523
350 1 0.746172 0.822547 0.434086
566 1 0.843572 0.741356 0.43137
188 2 0.837741 0.833413 0.451262
228 1 0.352856 0.127962 0.609364
299 1 0.347151 0.127933 0.591275
200 2 0.437335 0.141235 0.572674
237 1 0.61086 0.127119 0.647293
308 1 0.602364 0.121631 0.593369
219 1 0.192305 0.199409 0.636394
380 1 0.249466 0.24742 0.603282
435 1 0.186343 0.193979 0.629315
488 1 0.235644 0.234436 0.602903
624 1 0.255394 0.251208 0.607029
138 2 0.272023 0.156275 0.643688
84 2 0.164919 0.284861 0.644005
3 2 0.249125 0.242953 0.705794
110 2 0.349554 0.22221 0.587533
543 1 0.342385 0.209146 0.688923
93 2 0.419227 0.266081 0.668844
147 2 0.522579 0.147718 0.642121
389 1 0.450484 0.239099 0.586938
444 1 0.433251 0.170989 0.666395
497 1 0.489727 0.224765 0.589073
633 1 0.519082 0.249463 0.634475
480 1 0.681259 0.195179 0.670501
119 2 0.603119 0.211695 0.608584
264 1 0.608709 0.246358 0.704718
453 1 0.682 0.19694 0.671929
552 1 0.600989 0.257045 0.700327
317 1 0.844751 0.150838 0.610492
398 1 0.72859 0.221108 0.579593
156 2 0.768268 0.16748 0.657875
506 1 0.762514 0.212312 0.576601
128 2 0.83744 0.240862 0.623487
222 1 0.152323 0.374748 0.607123
515 1 0.146322 0.354343 0.58578
56 2 0.24231 0.351518 0.59654
327 1 0.225815 0.336972 0.700742
465 1 0.227236 0.337599 0.698588
141 2 0.291218 0.406723 0.6854
302 1 0.346903 0.371988 0.60613
524 1 0.383588 0.332873 0.604144
570 1 0.32433 0.311075 0.66701
231 1 0.442956 0.418377 0.656386
65 2 0.479233 0.330559 0.599654
150 2 0.53899 0.404531 0.646288
474 1 0.446155 0.422182 0.662684
579 1 0.567556 0.298828 0.639666
447 1 0.444389 0.420125 0.650082
102 2 0.679852 0.288077 0.638782
240 1 0.634818 0.379574 0.615316
174 2 0.61491 0.352644 0.707054
642 1 0.781762 0.312305 0.662431
74 2 0.731369 0.393222 0.617437
159 2 0.816809 0.412505 0.68889
320 1 0.83029 0.379727 0.600628
588 1 0.821081 0.332708 0.642608
87 2 0.165317 0.526786 0.646424
438 1 0.221123 0.449674 0.624362
491 1 0.253777 0.455127 0.600022
627 1 0.256598 0.503016 0.631323
113 2 0.348826 0.467626 0.61255
258 1 0.398146 0.45495 0.706989
546 1 0.318525 0.553992 0.680773
527 1 0.382208 0.562067 0.576114
573 1 0.318459 0.55743 0.676161
96 2 0.44293 0.514382 0.640143
500 1 0.506725 0.460183 0.572599
636 1 0.536521 0.546639 0.673571
555 1 0.561147 0.542834 0.679447
339 1 0.526837 0.55786 0.684275
582 1 0.560527 0.553663 0.669159
483 1 0.671504 0.436956 0.676306
105 2 0.664845 0.534527 0.653583
122 2 0.604879 0.472169 0.592725
267 1 0.663154 0.438927 0.67864
456 1 0.671944 0.437539 0.671343
564 1 0.848983 0.49791 0.699177
645 1 0.774095 0.551555 0.647163
131 2 0.839351 0.474063 0.597959
591 1 0.784387 0.558547 0.644153
518 1 0.137653 0.591251 0.57904
225 1 0.145577 0.618783 0.621069
252 1 0.203133 0.681371 0.660712
59 2 0.236627 0.60034 0.59909
330 1 0.227992 0.593526 0.700916
441 1 0.205812 0.680427 0.663261
468 1 0.222201 0.59162 0.697678
144 2 0.299735 0.656516 0.668207
234 1 0.366552 0.619851 0.607405
305 1 0.323955 0.650906 0.577407
116 2 0.390563 0.712512 0.620603
261 1 0.432847 0.692271 0.703613
68 2 0.460908 0.617206 0.616556
153 2 0.548909 0.649256 0.657679
450 1 0.432873 0.692253 0.703601
477 1 0.429349 0.695136 0.706474
243 1 0.643663 0.630219 0.644739
270 1 0.681876 0.685416 0.68385
459 1 0.681893 0.685406 0.68387
486 1 0.682025 0.688261 0.681652
125 2 0.624273 0.712311 0.597102
77 2 0.71509 0.626498 0.58236
162 2 0.774422 0.659393 0.67114
323 1 0.814614 0.619939 0.585847
494 1 0.236984 0.733619 0.592011
521 1 0.159178 0.848712 0.61845
90 2 0.171462 0.768924 0.659714
333 1 0.2345 0.839495 0.712502
62 2 0.248706 0.82953 0.615474
630 1 0.31832 0.788243 0.666228
99 2 0.412916 0.789756 0.697504
530 1 0.392899 0.807686 0.605606
549 1 0.319749 0.784241 0.662695
576 1 0.333652 0.820239 0.649919
639 1 0.557908 0.775166 0.65992
558 1 0.546952 0.783441 0.663757
585 1 0.558189 0.778954 0.656062
71 2 0.482108 0.825196 0.614806
108 2 0.6577 0.785844 0.672847
539 1 0.621952 0.811027 0.578026
594 1 0.808204 0.809448 0.60547
648 1 0.775566 0.777961 0.629731
134 2 0.831822 0.716535 0.588374
80 2 0.715807 0.840347 0.591626
189 2 0.820642 0.822159 0.696873
471 1 0.480144 0.137204 0.727698
606 1 0.478148 0.139892 0.735781
318 1 0.767324 0.0915144 0.822379
615 1 0.740613 0.137825 0.74167
462 1 0.227322 0.15253 0.733499
246 1 0.158954 0.254342 0.736339
597 1 0.25905 0.155419 0.73964
408 1 0.164122 0.269608 0.738896
192 2 0.214015 0.215251 0.801709
381 1 0.276706 0.278863 0.848178
255 1 0.346031 0.253729 0.726626
300 1 0.401091 0.169798 0.845022
201 2 0.40642 0.186585 0.756778
273 1 0.308962 0.215716 0.785028
111 2 0.378503 0.256467 0.836029
12 2 0.5088 0.22636 0.725801
390 1 0.470161 0.266788 0.806182
309 1 0.602329 0.168916 0.834783
498 1 0.57869 0.195144 0.81125
210 2 0.656089 0.178512 0.760573
282 1 0.585502 0.194278 0.816542
561 1 0.833621 0.226232 0.726561
399 1 0.738326 0.236384 0.84019
21 2 0.739132 0.251033 0.735823
291 1 0.829895 0.222502 0.722655
507 1 0.735993 0.206014 0.822043
48 2 0.825332 0.245848 0.822653
129 2 0.818219 0.149266 0.785431
516 1 0.166637 0.378022 0.848067
195 2 0.195252 0.398592 0.764081
354 1 0.206541 0.311461 0.802779
57 2 0.256369 0.376752 0.856336
600 1 0.315754 0.423963 0.793954
30 2 0.300826 0.324033 0.769765
165 2 0.398967 0.362632 0.719189
303 1 0.319471 0.421097 0.797444
525 1 0.396969 0.346421 0.818761
276 1 0.290611 0.426627 0.783088
336 1 0.502826 0.338349 0.718249
417 1 0.447119 0.292651 0.776477
363 1 0.444303 0.288125 0.768658
609 1 0.565009 0.412047 0.78055
312 1 0.564756 0.40679 0.784773
285 1 0.566471 0.41096 0.776131
66 2 0.495152 0.359604 0.819792
426 1 0.667879 0.309066 0.789383
39 2 0.574442 0.285939 0.793852
213 2 0.671355 0.412743 0.77835
372 1 0.665411 0.312241 0.792459
534 1 0.649668 0.329686 0.835287
345 1 0.73119 0.350066 0.717278
618 1 0.777705 0.413361 0.776868
183 2 0.833003 0.322737 0.743231
75 2 0.749971 0.334145 0.824639
321 1 0.862066 0.328714 0.833672
294 1 0.863534 0.423675 0.774333
249 1 0.149584 0.474443 0.727135
411 1 0.151245 0.471989 0.740123
6 2 0.240679 0.498752 0.729489
384 1 0.250515 0.541929 0.82743
492 1 0.256175 0.460385 0.817313
204 2 0.415198 0.437472 0.807278
114 2 0.342229 0.510407 0.821488
420 1 0.435464 0.547576 0.790636
15 2 0.495944 0.464026 0.73167
42 2 0.535144 0.551299 0.777013
393 1 0.436274 0.542151 0.793305
501 1 0.50819 0.460283 0.830202
366 1 0.435297 0.545387 0.787887
402 1 0.702925 0.496468 0.814487
429 1 0.663493 0.529486 0.785169
375 1 0.671734 0.514733 0.781747
123 2 0.603265 0.478591 0.836271
24 2 0.739595 0.491506 0.720223
51 2 0.806359 0.500659 0.810029
510 1 0.742942 0.433004 0.848795
519 1 0.146453 0.618626 0.826659
198 2 0.177334 0.654818 0.749191
357 1 0.202662 0.57389 0.789835
60 2 0.23167 0.642521 0.84631
33 2 0.29513 0.59379 0.7674
603 1 0.305848 0.683328 0.795975
168 2 0.39893 0.599837 0.718961
207 2 0.404453 0.691605 0.796741
279 1 0.308878 0.684579 0.790162
306 1 0.31675 0.666577 0.823887
528 1 0.387921 0.59552 0.813949
612 1 0.558117 0.659111 0.784434
288 1 0.558807 0.65931 0.77997
315 1 0.548428 0.656845 0.788549
69 2 0.477945 0.620229 0.835247
177 2 0.622511 0.60048 0.728783
216 2 0.66653 0.676116 0.786417
537 1 0.626011 0.578023 0.823051
348 1 0.721737 0.587907 0.722377
324 1 0.81786 0.60184 0.821414
621 1 0.771176 0.646874 0.773644
186 2 0.822801 0.579204 0.728822
78 2 0.724401 0.582487 0.825737
135 2 0.823202 0.701834 0.824823
414 1 0.139548 0.739976 0.743488
522 1 0.0765028 0.829151 0.833803
495 1 0.229652 0.738376 0.834568
9 2 0.254891 0.745028 0.734028
360 1 0.18142 0.814151 0.743169
387 1 0.227669 0.735133 0.828173
36 2 0.243851 0.830714 0.810931
63 2 0.146724 0.783538 0.821768
423 1 0.397971 0.794015 0.794198
531 1 0.329283 0.856301 0.839806
171 2 0.328026 0.843048 0.742206
117 2 0.324801 0.758876 0.846518
342 1 0.488362 0.83996 0.716878
504 1 0.485777 0.718698 0.838569
18 2 0.512032 0.732721 0.73549
45 2 0.499621 0.811898 0.812507
432 1 0.637809 0.776012 0.775051
540 1 0.602756 0.821383 0.821245
180 2 0.578033 0.835093 0.731659
126 2 0.579496 0.731084 0.836063
81 2 0.698705 0.826369 0.81902
351 1 0.734895 0.843091 0.732527
567 1 0.838617 0.74073 0.740626
297 1 0.843622 0.748342 0.747515
513 1 0.738743 0.742873 0.836375
378 1 0.748705 0.850342 0.746224
405 1 0.744135 0.748203 0.839164
27 2 0.741946 0.747075 0.738354
54 2 0.808584 0.810453 0.808935
369 1 0.425204 0.859641 0.766328
120 2 0.651175 0.239067 0.858165
489 1 0.294888 0.293692 0.859308
132 2 0.830132 0.407022 0.861612
396 1 0.424007 0.765475 0.860905
72 2 0.416785 0.85851 0.859306
ITEM: TIMESTEP
100
ITEM: NUMBER OF ATOMS
646
ITEM: BOX BOUNDS pp pp pp
-3.8537499999999998e+00 2.3346250999999999e+01
-3.8537499999999998e+00 2.3346250999999999e+01
-3.8537499999999998e+00 2.3346250999999999e+01
ITEM: ATOMS id type xs ys zs
433 1 0.215178 0.231685 0.136838
451 1 0.732999 0.225449 0.138861
229 1 0.365656 0.352303 0.13683
568 1 0.365658 0.352304 0.136832
238 1 0.5968 0.361369 0.130736
577 1 0.596944 0.361442 0.130733
445 1 0.484517 0.488197 0.11904
634 1 0.484505 0.488188 0.119043
232 1 0.363015 0.600023 0.135682
571 1 0.359077 0.591653 0.135865
241 1 0.606496 0.602634 0.138863
457 1 0.681565 0.684218 0.135103
580 1 0.600713 0.597242 0.140377
160 2 0.78079 0.665169 0.133846
589 1 0.865309 0.632501 0.140575
439 1 0.227463 0.734448 0.141081
448 1 0.492038 0.745853 0.141976
637 1 0.49204 0.745848 0.141975
106 2 0.672298 0.781416 0.140943
592 1 0.761074 0.756925 0.127342
646 1 0.760938 0.757155 0.127492
583 1 0.627001 0.860477 0.139428
460 1 0.232501 0.135979 0.242795
595 1 0.252493 0.142886 0.257906
478 1 0.733422 0.13643 0.217889
244 1 0.138726 0.227996 0.241194
406 1 0.14119 0.249396 0.26213
217 1 0.160344 0.197571 0.210709
622 1 0.245153 0.255083 0.148316
1 2 0.235878 0.235957 0.242371
136 2 0.272586 0.168424 0.169488
226 1 0.361183 0.175571 0.173313
253 1 0.335131 0.219202 0.215399
271 1 0.379373 0.261603 0.258448
415 1 0.37974 0.261807 0.258959
541 1 0.332395 0.22218 0.218655
91 2 0.39375 0.265524 0.163395
199 2 0.388811 0.168321 0.268721
442 1 0.479447 0.23604 0.149928
631 1 0.47933 0.23619 0.14966
469 1 0.473782 0.146268 0.243191
604 1 0.483318 0.149976 0.25366
10 2 0.472574 0.241664 0.244869
145 2 0.544144 0.181297 0.189941
235 1 0.640858 0.182312 0.183576
262 1 0.617863 0.224573 0.22819
280 1 0.608428 0.231143 0.238567
424 1 0.619609 0.241494 0.246881
550 1 0.607577 0.23257 0.235963
208 2 0.654421 0.152129 0.275944
640 1 0.750858 0.262666 0.151586
613 1 0.748101 0.146651 0.256152
19 2 0.715119 0.230203 0.232069
154 2 0.80137 0.189927 0.187884
289 1 0.840264 0.256355 0.254421
559 1 0.848752 0.262616 0.260872
220 1 0.106551 0.361014 0.185604
82 2 0.166042 0.294012 0.185882
325 1 0.243582 0.367835 0.248081
352 1 0.23502 0.351741 0.238177
463 1 0.233071 0.35916 0.231542
193 2 0.148447 0.381884 0.262725
598 1 0.297209 0.3965 0.272811
139 2 0.299804 0.406715 0.179903
163 2 0.389397 0.355307 0.225604
334 1 0.486465 0.344922 0.238061
361 1 0.476686 0.342622 0.270752
472 1 0.484082 0.385243 0.219326
100 2 0.654367 0.288828 0.16827
172 2 0.590148 0.37325 0.221641
481 1 0.700035 0.357677 0.213118
211 2 0.68307 0.414956 0.281365
586 1 0.851242 0.370995 0.149642
370 1 0.723315 0.347059 0.231805
157 2 0.771024 0.401308 0.176338
343 1 0.719056 0.338405 0.216255
616 1 0.782703 0.404742 0.27852
181 2 0.847009 0.348146 0.235
247 1 0.137891 0.472611 0.237839
409 1 0.137634 0.472259 0.237925
436 1 0.238175 0.472489 0.151377
625 1 0.238449 0.472324 0.151126
4 2 0.229613 0.460687 0.250811
85 2 0.18342 0.536043 0.185381
256 1 0.382597 0.461237 0.212615
274 1 0.338813 0.469456 0.256682
544 1 0.335423 0.487337 0.239663
148 2 0.565499 0.451267 0.149601
94 2 0.449878 0.567667 0.154739
13 2 0.477683 0.478779 0.210164
283 1 0.562432 0.457001 0.250943
364 1 0.447467 0.560809 0.261309
103 2 0.680478 0.552253 0.170447
265 1 0.641347 0.469981 0.21019
427 1 0.65865 0.512709 0.256559
553 1 0.607415 0.505937 0.219486
454 1 0.745802 0.485116 0.144419
643 1 0.745496 0.485596 0.144347
22 2 0.752423 0.494295 0.237159
292 1 0.844739 0.442616 0.218154
562 1 0.847453 0.539682 0.234403
223 1 0.193044 0.62935 0.19182
328 1 0.230379 0.603757 0.228485
355 1 0.230509 0.609203 0.232436
466 1 0.224428 0.605627 0.224783
7 2 0.231224 0.710842 0.2319
196 2 0.160384 0.64887 0.281982
142 2 0.291535 0.653322 0.169719
166 2 0.366085 0.580001 0.227895
259 1 0.38278 0.672741 0.186087
205 2 0.423255 0.668393 0.271974
151 2 0.565079 0.683795 0.165551
337 1 0.507572 0.614949 0.21388
475 1 0.494416 0.62806 0.213308
610 1 0.52474 0.651477 0.273418
175 2 0.601794 0.601488 0.234522
286 1 0.584013 0.700847 0.261369
373 1 0.696953 0.574124 0.277238
484 1 0.737519 0.620304 0.213985
346 1 0.748138 0.61054 0.212953
184 2 0.83619 0.638205 0.225308
250 1 0.137583 0.727133 0.218305
628 1 0.25714 0.7522 0.152527
412 1 0.147102 0.743836 0.260863
88 2 0.186674 0.800875 0.195666
331 1 0.255921 0.836454 0.255847
358 1 0.264064 0.843789 0.261562
574 1 0.370765 0.84391 0.151916
277 1 0.346181 0.715972 0.227624
97 2 0.407181 0.764671 0.175069
421 1 0.408072 0.769232 0.278298
547 1 0.336498 0.726432 0.22364
169 2 0.349199 0.832297 0.237979
16 2 0.500145 0.747415 0.235961
340 1 0.526972 0.845894 0.247737
367 1 0.44714 0.834586 0.232297
268 1 0.627322 0.737681 0.21603
556 1 0.607605 0.757902 0.210658
178 2 0.643847 0.843913 0.227018
295 1 0.838252 0.734094 0.234481
376 1 0.737991 0.854536 0.244675
25 2 0.730757 0.717172 0.212235
349 1 0.733676 0.844134 0.231012
565 1 0.836189 0.737417 0.236458
187 2 0.805459 0.808892 0.188189
236 1 0.598887 0.132461 0.354918
307 1 0.59628 0.132239 0.351293
218 1 0.197082 0.197952 0.397902
190 2 0.176613 0.174238 0.306831
379 1 0.234548 0.233126 0.354444
434 1 0.222957 0.222757 0.374437
487 1 0.257025 0.251718 0.368055
227 1 0.363817 0.144355 0.354756
298 1 0.364059 0.144206 0.354574
109 2 0.373633 0.238715 0.357537
137 2 0.297007 0.178147 0.40963
146 2 0.542273 0.173625 0.421149
388 1 0.477022 0.270956 0.340988
443 1 0.453856 0.196383 0.397638
496 1 0.503727 0.235848 0.341917
118 2 0.606275 0.223599 0.347657
397 1 0.718769 0.218717 0.334886
452 1 0.699875 0.209164 0.330863
505 1 0.714018 0.215093 0.332311
101 2 0.687289 0.282797 0.394408
155 2 0.776665 0.18611 0.389474
641 1 0.786915 0.285725 0.404645
316 1 0.861795 0.161758 0.368025
127 2 0.858555 0.24934 0.348778
221 1 0.137495 0.366009 0.353147
514 1 0.137772 0.365891 0.353346
623 1 0.27871 0.288586 0.389518
55 2 0.228069 0.380778 0.343662
83 2 0.179225 0.299247 0.405605
28 2 0.30377 0.307717 0.29621
140 2 0.292589 0.421624 0.428417
230 1 0.392733 0.399327 0.374773
301 1 0.37259 0.387432 0.357008
523 1 0.391493 0.368168 0.354988
569 1 0.30638 0.320763 0.394304
92 2 0.446412 0.287916 0.42518
37 2 0.556964 0.302701 0.294187
64 2 0.488306 0.368145 0.361674
149 2 0.568591 0.42474 0.419965
310 1 0.607085 0.385607 0.335221
532 1 0.642542 0.34714 0.338866
578 1 0.572676 0.318866 0.389039
46 2 0.765664 0.298749 0.302298
73 2 0.74433 0.383483 0.378496
319 1 0.832455 0.381614 0.326891
587 1 0.834244 0.339373 0.376322
382 1 0.224036 0.50432 0.350135
437 1 0.245587 0.479569 0.360541
490 1 0.249038 0.482249 0.355192
31 2 0.284426 0.553789 0.29531
626 1 0.303684 0.564335 0.407047
95 2 0.408715 0.555806 0.428383
112 2 0.353083 0.485546 0.354543
572 1 0.307377 0.569408 0.401359
607 1 0.533904 0.432592 0.289569
418 1 0.431282 0.53534 0.28785
202 2 0.430186 0.433268 0.292603
40 2 0.531989 0.540193 0.289632
391 1 0.459703 0.508282 0.358707
446 1 0.429962 0.439032 0.398771
499 1 0.507522 0.466672 0.356835
635 1 0.548182 0.542968 0.408166
581 1 0.557274 0.553803 0.405829
239 1 0.666006 0.431605 0.422732
104 2 0.651406 0.530268 0.428515
121 2 0.611143 0.482806 0.333454
400 1 0.70455 0.522069 0.331656
455 1 0.668563 0.435803 0.421318
158 2 0.848125 0.436523 0.409523
508 1 0.764046 0.476436 0.347218
644 1 0.80954 0.548306 0.404847
130 2 0.846949 0.4742 0.305234
590 1 0.791024 0.559732 0.420046
224 1 0.12428 0.628652 0.370742
517 1 0.121885 0.595102 0.360131
601 1 0.278329 0.648553 0.291223
58 2 0.211265 0.595793 0.370555
440 1 0.21918 0.697772 0.342079
493 1 0.223087 0.704723 0.33652
143 2 0.29306 0.672697 0.398228
304 1 0.349575 0.63727 0.328066
526 1 0.382009 0.594522 0.331662
67 2 0.474547 0.605118 0.351582
449 1 0.436867 0.659255 0.428325
214 2 0.673981 0.667862 0.289333
242 1 0.656867 0.677564 0.422184
313 1 0.574528 0.617703 0.336427
458 1 0.659298 0.680278 0.418835
535 1 0.627889 0.583204 0.335604
124 2 0.585817 0.707237 0.357607
269 1 0.656746 0.693628 0.42062
485 1 0.659739 0.663511 0.427484
619 1 0.775303 0.676377 0.312421
49 2 0.792278 0.574248 0.30336
76 2 0.71706 0.607787 0.376863
161 2 0.830709 0.643015 0.392721
511 1 0.769128 0.685254 0.328025
322 1 0.877909 0.637537 0.312344
520 1 0.151495 0.848381 0.371099
89 2 0.180365 0.766246 0.392707
385 1 0.200759 0.782841 0.293316
629 1 0.277774 0.781971 0.402257
61 2 0.23911 0.850137 0.346811
34 2 0.298745 0.756598 0.308032
98 2 0.416333 0.839555 0.426491
115 2 0.38927 0.730219 0.37184
529 1 0.380152 0.823753 0.330034
575 1 0.330106 0.822066 0.377458
502 1 0.486924 0.72437 0.341146
394 1 0.481789 0.725906 0.337175
638 1 0.553569 0.797056 0.397858
584 1 0.555393 0.794316 0.398184
70 2 0.474836 0.821437 0.328259
430 1 0.675944 0.775225 0.307199