ITEM: TIMESTEP
0
ITEM: NUMBER OF ATOMS
1500
ITEM: BOX BOUNDS pp pp pp
1.9888809999999999e+00 2.1388881000000001e+01
1.9888809999999999e+00 2.1388881000000001e+01
3.6374569999999999e+00 3.5137456999999998e+01
ITEM: ATOMS id type xs ys zs
656 1 0.146965 0.146965 0.00928708
660 1 0.146965 0.146965 0.00738229
876 1 0.062198 0.104581 0.071668
880 1 0.062198 0.104581 0.0697632
896 1 0.062198 0.10252 0.071668
900 1 0.062198 0.10252 0.0697632
976 1 0.0601362 0.104581 0.071668
980 1 0.0601362 0.104581 0.0697632
996 1 0.0601362 0.10252 0.071668
1000 1 0.0601362 0.10252 0.0697632
1151 1 0.189348 0.104581 0.071668
1155 1 0.189348 0.104581 0.0697632
1171 1 0.189348 0.10252 0.071668
1175 1 0.189348 0.10252 0.0697632
681 1 0.396449 0.146965 0.00928708
685 1 0.396449 0.146965 0.00738229
901 1 0.311683 0.104581 0.071668
905 1 0.311683 0.104581 0.0697632
921 1 0.311683 0.10252 0.071668
925 1 0.311683 0.10252 0.0697632
926 1 0.561167 0.104581 0.071668
930 1 0.561167 0.104581 0.0697632
946 1 0.561167 0.10252 0.071668
950 1 0.561167 0.10252 0.0697632
1176 1 0.438833 0.104581 0.071668
1180 1 0.438833 0.104581 0.0697632
1196 1 0.438833 0.10252 0.071668
1200 1 0.438833 0.10252 0.0697632
706 1 0.645934 0.146965 0.00928708
710 1 0.645934 0.146965 0.00738229
1201 1 0.688317 0.104581 0.071668
1205 1 0.688317 0.104581 0.0697632
1221 1 0.688317 0.10252 0.071668
1225 1 0.688317 0.10252 0.0697632
631 1 0.89748 0.146965 0.00928708
635 1 0.89748 0.146965 0.00738229
731 1 0.895419 0.146965 0.00928708
735 1 0.895419 0.146965 0.00738229
951 1 0.810652 0.104581 0.071668
955 1 0.810652 0.104581 0.0697632
971 1 0.810652 0.10252 0.071668
975 1 0.810652 0.10252 0.0697632
1126 1 0.939864 0.104581 0.071668
1130 1 0.939864 0.104581 0.0697632
1146 1 0.939864 0.10252 0.071668
1150 1 0.939864 0.10252 0.0697632
1226 1 0.937802 0.104581 0.071668
1230 1 0.937802 0.104581 0.0697632
1246 1 0.937802 0.10252 0.071668
1250 1 0.937802 0.10252 0.0697632
131 2 0.0638034 0.230126 0.11738
135 2 0.0638034 0.230126 0.115475
231 2 0.0617415 0.230126 0.11738
235 2 0.0617415 0.230126 0.115475
256 2 0.0638034 0.230126 0.0259565
260 2 0.0638034 0.230126 0.0240518
356 2 0.0617415 0.230126 0.0259565
360 2 0.0617415 0.230126 0.0240518
661 1 0.146965 0.396449 0.00928708
665 1 0.146965 0.396449 0.00738229
881 1 0.062198 0.354066 0.071668
885 1 0.062198 0.354066 0.0697632
981 1 0.0601362 0.354066 0.071668
985 1 0.0601362 0.354066 0.0697632
1156 1 0.189348 0.354066 0.071668
1160 1 0.189348 0.354066 0.0697632
1406 1 0.189348 0.231732 0.071668
1410 1 0.189348 0.231732 0.0697632
156 2 0.313288 0.230126 0.11738
160 2 0.313288 0.230126 0.115475
281 2 0.313288 0.230126 0.0259565
285 2 0.313288 0.230126 0.0240518
686 1 0.396449 0.396449 0.00928708
690 1 0.396449 0.396449 0.00738229
906 1 0.311683 0.354066 0.071668
910 1 0.311683 0.354066 0.0697632
181 2 0.562772 0.230126 0.11738
185 2 0.562772 0.230126 0.115475
306 2 0.562772 0.230126 0.0259565
310 2 0.562772 0.230126 0.0240518
931 1 0.561167 0.354066 0.071668
935 1 0.561167 0.354066 0.0697632
1181 1 0.438833 0.354066 0.071668
1185 1 0.438833 0.354066 0.0697632
1431 1 0.438833 0.231732 0.071668
1435 1 0.438833 0.231732 0.0697632
711 1 0.645934 0.396449 0.00928708
715 1 0.645934 0.396449 0.00738229
1206 1 0.688317 0.354066 0.071668
1210 1 0.688317 0.354066 0.0697632
1456 1 0.688317 0.231732 0.071668
1460 1 0.688317 0.231732 0.0697632
206 2 0.812257 0.230126 0.11738
210 2 0.812257 0.230126 0.115475
331 2 0.812257 0.230126 0.0259565
335 2 0.812257 0.230126 0.0240518
636 1 0.89748 0.396449 0.00928708
640 1 0.89748 0.396449 0.00738229
736 1 0.895419 0.396449 0.00928708
740 1 0.895419 0.396449 0.00738229
956 1 0.810652 0.354066 0.071668
960 1 0.810652 0.354066 0.0697632
1131 1 0.939864 0.354066 0.071668
1135 1 0.939864 0.354066 0.0697632
1231 1 0.937802 0.354066 0.071668
1235 1 0.937802 0.354066 0.0697632
1381 1 0.939864 0.231732 0.071668
1385 1 0.939864 0.231732 0.0697632
1481 1 0.937802 0.231732 0.071668
1485 1 0.937802 0.231732 0.0697632
136 2 0.0638034 0.479611 0.11738
140 2 0.0638034 0.479611 0.115475
236 2 0.0617415 0.479611 0.11738
240 2 0.0617415 0.479611 0.115475
261 2 0.0638034 0.479611 0.0259565
265 2 0.0638034 0.479611 0.0240518
361 2 0.0617415 0.479611 0.0259565
365 2 0.0617415 0.479611 0.0240518
1411 1 0.189348 0.481216 0.071668
1415 1 0.189348 0.481216 0.0697632
161 2 0.313288 0.479611 0.11738
165 2 0.313288 0.479611 0.115475
286 2 0.313288 0.479611 0.0259565
290 2 0.313288 0.479611 0.0240518
186 2 0.562772 0.479611 0.11738
190 2 0.562772 0.479611 0.115475
311 2 0.562772 0.479611 0.0259565
315 2 0.562772 0.479611 0.0240518
1436 1 0.438833 0.481216 0.071668
1440 1 0.438833 0.481216 0.0697632
1461 1 0.688317 0.481216 0.071668
1465 1 0.688317 0.481216 0.0697632
211 2 0.812257 0.479611 0.11738
215 2 0.812257 0.479611 0.115475
336 2 0.812257 0.479611 0.0259565
340 2 0.812257 0.479611 0.0240518
1386 1 0.939864 0.481216 0.071668
1390 1 0.939864 0.481216 0.0697632
1486 1 0.937802 0.481216 0.071668
1490 1 0.937802 0.481216 0.0697632
141 2 0.0638034 0.729095 0.11738
145 2 0.0638034 0.729095 0.115475
241 2 0.0617415 0.729095 0.11738
245 2 0.0617415 0.729095 0.115475
266 2 0.0638034 0.729095 0.0259565
270 2 0.0638034 0.729095 0.0240518
366 2 0.0617415 0.729095 0.0259565
370 2 0.0617415 0.729095 0.0240518
666 1 0.146965 0.645934 0.00928708
670 1 0.146965 0.645934 0.00738229
886 1 0.062198 0.603551 0.071668
890 1 0.062198 0.603551 0.0697632
986 1 0.0601362 0.603551 0.071668
990 1 0.0601362 0.603551 0.0697632
1161 1 0.189348 0.603551 0.071668
1165 1 0.189348 0.603551 0.0697632
1416 1 0.189348 0.730701 0.071668
1420 1 0.189348 0.730701 0.0697632
166 2 0.313288 0.729095 0.11738
170 2 0.313288 0.729095 0.115475
291 2 0.313288 0.729095 0.0259565
295 2 0.313288 0.729095 0.0240518
691 1 0.396449 0.645934 0.00928708
695 1 0.396449 0.645934 0.00738229
911 1 0.311683 0.603551 0.071668
915 1 0.311683 0.603551 0.0697632
191 2 0.562772 0.729095 0.11738
195 2 0.562772 0.729095 0.115475
316 2 0.562772 0.729095 0.0259565
320 2 0.562772 0.729095 0.0240518
936 1 0.561167 0.603551 0.071668
940 1 0.561167 0.603551 0.0697632
1186 1 0.438833 0.603551 0.071668
1190 1 0.438833 0.603551 0.0697632
1441 1 0.438833 0.730701 0.071668
1445 1 0.438833 0.730701 0.0697632
716 1 0.645934 0.645934 0.00928708
720 1 0.645934 0.645934 0.00738229
1211 1 0.688317 0.603551 0.071668
1215 1 0.688317 0.603551 0.0697632
1466 1 0.688317 0.730701 0.071668
1470 1 0.688317 0.730701 0.0697632
216 2 0.812257 0.729095 0.11738
220 2 0.812257 0.729095 0.115475
341 2 0.812257 0.729095 0.0259565
345 2 0.812257 0.729095 0.0240518
641 1 0.89748 0.645934 0.00928708
645 1 0.89748 0.645934 0.00738229
741 1 0.895419 0.645934 0.00928708
745 1 0.895419 0.645934 0.00738229
961 1 0.810652 0.603551 0.071668
965 1 0.810652 0.603551 0.0697632
1136 1 0.939864 0.603551 0.071668
1140 1 0.939864 0.603551 0.0697632
1236 1 0.937802 0.603551 0.071668
1240 1 0.937802 0.603551 0.0697632
1391 1 0.939864 0.730701 0.071668
1395 1 0.939864 0.730701 0.0697632
1491 1 0.937802 0.730701 0.071668
1495 1 0.937802 0.730701 0.0697632
126 2 0.0638034 0.980642 0.11738
130 2 0.0638034 0.980642 0.115475
146 2 0.0638034 0.97858 0.11738
150 2 0.0638034 0.97858 0.115475
226 2 0.0617415 0.980642 0.11738
230 2 0.0617415 0.980642 0.115475
246 2 0.0617415 0.97858 0.11738
250 2 0.0617415 0.97858 0.115475
251 2 0.0638034 0.980642 0.0259565
255 2 0.0638034 0.980642 0.0240518
271 2 0.0638034 0.97858 0.0259565
275 2 0.0638034 0.97858 0.0240518
351 2 0.0617415 0.980642 0.0259565
355 2 0.0617415 0.980642 0.0240518
371 2 0.0617415 0.97858 0.0259565
375 2 0.0617415 0.97858 0.0240518
651 1 0.146965 0.89748 0.00928708
655 1 0.146965 0.89748 0.00738229
671 1 0.146965 0.895419 0.00928708
675 1 0.146965 0.895419 0.00738229
891 1 0.062198 0.853035 0.071668
895 1 0.062198 0.853035 0.0697632
991 1 0.0601362 0.853035 0.071668
995 1 0.0601362 0.853035 0.0697632
1166 1 0.189348 0.853035 0.071668
1170 1 0.189348 0.853035 0.0697632
1401 1 0.189348 0.982247 0.071668
1405 1 0.189348 0.982247 0.0697632
1421 1 0.189348 0.980185 0.071668
1425 1 0.189348 0.980185 0.0697632
151 2 0.313288 0.980642 0.11738
155 2 0.313288 0.980642 0.115475
171 2 0.313288 0.97858 0.11738
175 2 0.313288 0.97858 0.115475
276 2 0.313288 0.980642 0.0259565
280 2 0.313288 0.980642 0.0240518
296 2 0.313288 0.97858 0.0259565
300 2 0.313288 0.97858 0.0240518
676 1 0.396449 0.89748 0.00928708
680 1 0.396449 0.89748 0.00738229
696 1 0.396449 0.895419 0.00928708
700 1 0.396449 0.895419 0.00738229
916 1 0.311683 0.853035 0.071668
920 1 0.311683 0.853035 0.0697632
176 2 0.562772 0.980642 0.11738
180 2 0.562772 0.980642 0.115475
196 2 0.562772 0.97858 0.11738
200 2 0.562772 0.97858 0.115475
301 2 0.562772 0.980642 0.0259565
305 2 0.562772 0.980642 0.0240518
321 2 0.562772 0.97858 0.0259565
325 2 0.562772 0.97858 0.0240518
941 1 0.561167 0.853035 0.071668
945 1 0.561167 0.853035 0.0697632
1191 1 0.438833 0.853035 0.071668
1195 1 0.438833 0.853035 0.0697632
1426 1 0.438833 0.982247 0.071668
1430 1 0.438833 0.982247 0.0697632
1446 1 0.438833 0.980185 0.071668
1450 1 0.438833 0.980185 0.0697632
701 1 0.645934 0.89748 0.00928708
705 1 0.645934 0.89748 0.00738229
721 1 0.645934 0.895419 0.00928708
725 1 0.645934 0.895419 0.00738229
1216 1 0.688317 0.853035 0.071668
1220 1 0.688317 0.853035 0.0697632
1451 1 0.688317 0.982247 0.071668
1455 1 0.688317 0.982247 0.0697632
1471 1 0.688317 0.980185 0.071668
1475 1 0.688317 0.980185 0.0697632
201 2 0.812257 0.980642 0.11738
205 2 0.812257 0.980642 0.115475
221 2 0.812257 0.97858 0.11738
225 2 0.812257 0.97858 0.115475
326 2 0.812257 0.980642 0.0259565
330 2 0.812257 0.980642 0.0240518
346 2 0.812257 0.97858 0.0259565
350 2 0.812257 0.97858 0.0240518
626 1 0.89748 0.89748 0.00928708
630 1 0.89748 0.89748 0.00738229
646 1 0.89748 0.895419 0.00928708
650 1 0.89748 0.895419 0.00738229
726 1 0.895419 0.89748 0.00928708
730 1 0.895419 0.89748 0.00738229
746 1 0.895419 0.895419 0.00928708
750 1 0.895419 0.895419 0.00738229
966 1 0.810652 0.853035 0.071668
970 1 0.810652 0.853035 0.0697632
1141 1 0.939864 0.853035 0.071668
1145 1 0.939864 0.853035 0.0697632
1241 1 0.937802 0.853035 0.071668
1245 1 0.937802 0.853035 0.0697632
1376 1 0.939864 0.982247 0.071668
1380 1 0.939864 0.982247 0.0697632
1396 1 0.939864 0.980185 0.071668
1400 1 0.939864 0.980185 0.0697632
1476 1 0.937802 0.982247 0.071668
1480 1 0.937802 0.982247 0.0697632
1496 1 0.937802 0.980185 0.071668
1500 1 0.937802 0.980185 0.0697632
532 1 0.146965 0.146965 0.134049
1007 1 0.104581 0.189348 0.19643
1107 1 0.10252 0.189348 0.19643
1252 1 0.104581 0.062198 0.19643
1272 1 0.104581 0.0601362 0.19643
1352 1 0.10252 0.062198 0.19643
1372 1 0.10252 0.0601362 0.19643
27 2 0.230126 0.0638034 0.150718
47 2 0.230126 0.0617415 0.150718
402 2 0.230126 0.0638034 0.242141
422 2 0.230126 0.0617415 0.242141
557 1 0.396449 0.146965 0.134049
782 1 0.231732 0.189348 0.19643
1032 1 0.354066 0.189348 0.19643
1277 1 0.354066 0.062198 0.19643
1297 1 0.354066 0.0601362 0.19643
52 2 0.479611 0.0638034 0.150718
72 2 0.479611 0.0617415 0.150718
427 2 0.479611 0.0638034 0.242141
447 2 0.479611 0.0617415 0.242141
807 1 0.481216 0.189348 0.19643
77 2 0.729095 0.0638034 0.150718
97 2 0.729095 0.0617415 0.150718
452 2 0.729095 0.0638034 0.242141
472 2 0.729095 0.0617415 0.242141
582 1 0.645934 0.146965 0.134049
832 1 0.730701 0.189348 0.19643
1057 1 0.603551 0.189348 0.19643
1302 1 0.603551 0.062198 0.19643
1322 1 0.603551 0.0601362 0.19643
2 2 0.980642 0.0638034 0.150718
22 2 0.980642 0.0617415 0.150718
102 2 0.97858 0.0638034 0.150718
122 2 0.97858 0.0617415 0.150718
377 2 0.980642 0.0638034 0.242141
397 2 0.980642 0.0617415 0.242141
477 2 0.97858 0.0638034 0.242141
497 2 0.97858 0.0617415 0.242141
507 1 0.89748 0.146965 0.134049
607 1 0.895419 0.146965 0.134049
757 1 0.982247 0.189348 0.19643
857 1 0.980185 0.189348 0.19643
1082 1 0.853035 0.189348 0.19643
1327 1 0.853035 0.062198 0.19643
1347 1 0.853035 0.0601362 0.19643
537 1 0.146965 0.396449 0.134049
1257 1 0.104581 0.311683 0.19643
1357 1 0.10252 0.311683 0.19643
32 2 0.230126 0.313288 0.150718
407 2 0.230126 0.313288 0.242141
562 1 0.396449 0.396449 0.134049
1282 1 0.354066 0.311683 0.19643
57 2 0.479611 0.313288 0.150718
432 2 0.479611 0.313288 0.242141
82 2 0.729095 0.313288 0.150718
457 2 0.729095 0.313288 0.242141
587 1 0.645934 0.396449 0.134049
1307 1 0.603551 0.311683 0.19643
7 2 0.980642 0.313288 0.150718
107 2 0.97858 0.313288 0.150718
382 2 0.980642 0.313288 0.242141
482 2 0.97858 0.313288 0.242141
512 1 0.89748 0.396449 0.134049
612 1 0.895419 0.396449 0.134049
1332 1 0.853035 0.311683 0.19643
1012 1 0.104581 0.438833 0.19643
1112 1 0.10252 0.438833 0.19643
1262 1 0.104581 0.561167 0.19643
1362 1 0.10252 0.561167 0.19643
37 2 0.230126 0.562772 0.150718
412 2 0.230126 0.562772 0.242141
787 1 0.231732 0.438833 0.19643
1037 1 0.354066 0.438833 0.19643
1287 1 0.354066 0.561167 0.19643
62 2 0.479611 0.562772 0.150718
437 2 0.479611 0.562772 0.242141
812 1 0.481216 0.438833 0.19643
87 2 0.729095 0.562772 0.150718
462 2 0.729095 0.562772 0.242141
837 1 0.730701 0.438833 0.19643
1062 1 0.603551 0.438833 0.19643
1312 1 0.603551 0.561167 0.19643
12 2 0.980642 0.562772 0.150718
112 2 0.97858 0.562772 0.150718
387 2 0.980642 0.562772 0.242141
487 2 0.97858 0.562772 0.242141
762 1 0.982247 0.438833 0.19643
862 1 0.980185 0.438833 0.19643
1087 1 0.853035 0.438833 0.19643
1337 1 0.853035 0.561167 0.19643
542 1 0.146965 0.645934 0.134049
1017 1 0.104581 0.688317 0.19643
1117 1 0.10252 0.688317 0.19643
567 1 0.396449 0.645934 0.134049
792 1 0.231732 0.688317 0.19643
1042 1 0.354066 0.688317 0.19643
817 1 0.481216 0.688317 0.19643
592 1 0.645934 0.645934 0.134049
842 1 0.730701 0.688317 0.19643
1067 1 0.603551 0.688317 0.19643
517 1 0.89748 0.645934 0.134049
617 1 0.895419 0.645934 0.134049
767 1 0.982247 0.688317 0.19643
867 1 0.980185 0.688317 0.19643
1092 1 0.853035 0.688317 0.19643
527 1 0.146965 0.89748 0.134049
547 1 0.146965 0.895419 0.134049
1002 1 0.104581 0.939864 0.19643
1022 1 0.104581 0.937802 0.19643
1102 1 0.10252 0.939864 0.19643
1122 1 0.10252 0.937802 0.19643
1267 1 0.104581 0.810652 0.19643
1367 1 0.10252 0.810652 0.19643
42 2 0.230126 0.812257 0.150718
417 2 0.230126 0.812257 0.242141
552 1 0.396449 0.89748 0.134049
572 1 0.396449 0.895419 0.134049
777 1 0.231732 0.939864 0.19643
797 1 0.231732 0.937802 0.19643
1027 1 0.354066 0.939864 0.19643
1047 1 0.354066 0.937802 0.19643
1292 1 0.354066 0.810652 0.19643
67 2 0.479611 0.812257 0.150718
442 2 0.479611 0.812257 0.242141
802 1 0.481216 0.939864 0.19643
822 1 0.481216 0.937802 0.19643
92 2 0.729095 0.812257 0.150718
467 2 0.729095 0.812257 0.242141
577 1 0.645934 0.89748 0.134049
597 1 0.645934 0.895419 0.134049
827 1 0.730701 0.939864 0.19643
847 1 0.730701 0.937802 0.19643
1052 1 0.603551 0.939864 0.19643
1072 1 0.603551 0.937802 0.19643
1317 1 0.603551 0.810652 0.19643
17 2 0.980642 0.812257 0.150718
117 2 0.97858 0.812257 0.150718
392 2 0.980642 0.812257 0.242141
492 2 0.97858 0.812257 0.242141
502 1 0.89748 0.89748 0.134049
522 1 0.89748 0.895419 0.134049
602 1 0.895419 0.89748 0.134049
622 1 0.895419 0.895419 0.134049
752 1 0.982247 0.939864 0.19643
772 1 0.982247 0.937802 0.19643
852 1 0.980185 0.939864 0.19643
872 1 0.980185 0.937802 0.19643
1077 1 0.853035 0.939864 0.19643
1097 1 0.853035 0.937802 0.19643
1342 1 0.853035 0.810652 0.19643
657 1 0.146965 0.146965 0.258811
877 1 0.062198 0.104581 0.321192
897 1 0.062198 0.10252 0.321192
977 1 0.0601362 0.104581 0.321192
997 1 0.0601362 0.10252 0.321192
1152 1 0.189348 0.104581 0.321192
1172 1 0.189348 0.10252 0.321192
682 1 0.396449 0.146965 0.258811
902 1 0.311683 0.104581 0.321192
922 1 0.311683 0.10252 0.321192
927 1 0.561167 0.104581 0.321192
947 1 0.561167 0.10252 0.321192
1177 1 0.438833 0.104581 0.321192
1197 1 0.438833 0.10252 0.321192
707 1 0.645934 0.146965 0.258811
1202 1 0.688317 0.104581 0.321192
1222 1 0.688317 0.10252 0.321192
632 1 0.89748 0.146965 0.258811
732 1 0.895419 0.146965 0.258811
952 1 0.810652 0.104581 0.321192
972 1 0.810652 0.10252 0.321192
1127 1 0.939864 0.104581 0.321192
1147 1 0.939864 0.10252 0.321192
1227 1 0.937802 0.104581 0.321192
1247 1 0.937802 0.10252 0.321192
132 2 0.0638034 0.230126 0.366903
232 2 0.0617415 0.230126 0.366903
257 2 0.0638034 0.230126 0.27548
357 2 0.0617415 0.230126 0.27548
662 1 0.146965 0.396449 0.258811
882 1 0.062198 0.354066 0.321192
982 1 0.0601362 0.354066 0.321192
1157 1 0.189348 0.354066 0.321192
1407 1 0.189348 0.231732 0.321192
157 2 0.313288 0.230126 0.366903
282 2 0.313288 0.230126 0.27548
687 1 0.396449 0.396449 0.258811
907 1 0.311683 0.354066 0.321192
182 2 0.562772 0.230126 0.366903
307 2 0.562772 0.230126 0.27548
932 1 0.561167 0.354066 0.321192
1182 1 0.438833 0.354066 0.321192
1432 1 0.438833 0.231732 0.321192
712 1 0.645934 0.396449 0.258811
1207 1 0.688317 0.354066 0.321192
1457 1 0.688317 0.231732 0.321192
207 2 0.812257 0.230126 0.366903
332 2 0.812257 0.230126 0.27548
637 1 0.89748 0.396449 0.258811
737 1 0.895419 0.396449 0.258811
957 1 0.810652 0.354066 0.321192
1132 1 0.939864 0.354066 0.321192
1232 1 0.937802 0.354066 0.321192
1382 1 0.939864 0.231732 0.321192
1482 1 0.937802 0.231732 0.321192
137 2 0.0638034 0.479611 0.366903
237 2 0.0617415 0.479611 0.366903
262 2 0.0638034 0.479611 0.27548
362 2 0.0617415 0.479611 0.27548
1412 1 0.189348 0.481216 0.321192
162 2 0.313288 0.479611 0.366903
287 2 0.313288 0.479611 0.27548
187 2 0.562772 0.479611 0.366903
312 2 0.562772 0.479611 0.27548
1437 1 0.438833 0.481216 0.321192
1462 1 0.688317 0.481216 0.321192
212 2 0.812257 0.479611 0.366903
337 2 0.812257 0.479611 0.27548
1387 1 0.939864 0.481216 0.321192
1487 1 0.937802 0.481216 0.321192
142 2 0.0638034 0.729095 0.366903
242 2 0.0617415 0.729095 0.366903
267 2 0.0638034 0.729095 0.27548
367 2 0.0617415 0.729095 0.27548
667 1 0.146965 0.645934 0.258811
887 1 0.062198 0.603551 0.321192
987 1 0.0601362 0.603551 0.321192
1162 1 0.189348 0.603551 0.321192
1417 1 0.189348 0.730701 0.321192
167 2 0.313288 0.729095 0.366903
292 2 0.313288 0.729095 0.27548
692 1 0.396449 0.645934 0.258811
912 1 0.311683 0.603551 0.321192
192 2 0.562772 0.729095 0.366903
317 2 0.562772 0.729095 0.27548
937 1 0.561167 0.603551 0.321192
1187 1 0.438833 0.603551 0.321192
1442 1 0.438833 0.730701 0.321192
717 1 0.645934 0.645934 0.258811
1212 1 0.688317 0.603551 0.321192
1467 1 0.688317 0.730701 0.321192
217 2 0.812257 0.729095 0.366903
342 2 0.812257 0.729095 0.27548
642 1 0.89748 0.645934 0.258811
742 1 0.895419 0.645934 0.258811
962 1 0.810652 0.603551 0.321192
1137 1 0.939864 0.603551 0.321192
1237 1 0.937802 0.603551 0.321192
1392 1 0.939864 0.730701 0.321192
1492 1 0.937802 0.730701 0.321192
127 2 0.0638034 0.980642 0.366903
147 2 0.0638034 0.97858 0.366903
227 2 0.0617415 0.980642 0.366903
247 2 0.0617415 0.97858 0.366903
252 2 0.0638034 0.980642 0.27548
272 2 0.0638034 0.97858 0.27548
352 2 0.0617415 0.980642 0.27548
372 2 0.0617415 0.97858 0.27548
652 1 0.146965 0.89748 0.258811
672 1 0.146965 0.895419 0.258811
892 1 0.062198 0.853035 0.321192
992 1 0.0601362 0.853035 0.321192
1167 1 0.189348 0.853035 0.321192
1402 1 0.189348 0.982247 0.321192
1422 1 0.189348 0.980185 0.321192
152 2 0.313288 0.980642 0.366903
172 2 0.313288 0.97858 0.366903
277 2 0.313288 0.980642 0.27548
297 2 0.313288 0.97858 0.27548
677 1 0.396449 0.89748 0.258811
697 1 0.396449 0.895419 0.258811
917 1 0.311683 0.853035 0.321192
177 2 0.562772 0.980642 0.366903
197 2 0.562772 0.97858 0.366903
302 2 0.562772 0.980642 0.27548
322 2 0.562772 0.97858 0.27548
942 1 0.561167 0.853035 0.321192
1192 1 0.438833 0.853035 0.321192
1427 1 0.438833 0.982247 0.321192
1447 1 0.438833 0.980185 0.321192
702 1 0.645934 0.89748 0.258811
722 1 0.645934 0.895419 0.258811
1217 1 0.688317 0.853035 0.321192
1452 1 0.688317 0.982247 0.321192
1472 1 0.688317 0.980185 0.321192
202 2 0.812257 0.980642 0.366903
222 2 0.812257 0.97858 0.366903
327 2 0.812257 0.980642 0.27548
347 2 0.812257 0.97858 0.27548
627 1 0.89748 0.89748 0.258811
647 1 0.89748 0.895419 0.258811
727 1 0.895419 0.89748 0.258811
747 1 0.895419 0.895419 0.258811
967 1 0.810652 0.853035 0.321192
1142 1 0.939864 0.853035 0.321192
1242 1 0.937802 0.853035 0.321192
1377 1 0.939864 0.982247 0.321192
1397 1 0.939864 0.980185 0.321192
1477 1 0.937802 0.982247 0.321192
1497 1 0.937802 0.980185 0.321192
533 1 0.146965 0.146965 0.383573
1008 1 0.104581 0.189348 0.445954
1108 1 0.10252 0.189348 0.445954
1253 1 0.104581 0.062198 0.445954
1273 1 0.104581 0.0601362 0.445954
1353 1 0.10252 0.062198 0.445954
1373 1 0.10252 0.0601362 0.445954
28 2 0.230126 0.0638034 0.400242
48 2 0.230126 0.0617415 0.400242
403 2 0.230126 0.0638034 0.491665
423 2 0.230126 0.0617415 0.491665
558 1 0.396449 0.146965 0.383573
783 1 0.231732 0.189348 0.445954
1033 1 0.354066 0.189348 0.445954
1278 1 0.354066 0.062198 0.445954
1298 1 0.354066 0.0601362 0.445954
53 2 0.479611 0.0638034 0.400242
73 2 0.479611 0.0617415 0.400242
428 2 0.479611 0.0638034 0.491665
448 2 0.479611 0.0617415 0.491665
808 1 0.481216 0.189348 0.445954
78 2 0.729095 0.0638034 0.400242
98 2 0.729095 0.0617415 0.400242
453 2 0.729095 0.0638034 0.491665
473 2 0.729095 0.0617415 0.491665
583 1 0.645934 0.146965 0.383573
833 1 0.730701 0.189348 0.445954
1058 1 0.603551 0.189348 0.445954
1303 1 0.603551 0.062198 0.445954
1323 1 0.603551 0.0601362 0.445954
3 2 0.980642 0.0638034 0.400242
23 2 0.980642 0.0617415 0.400242
103 2 0.97858 0.0638034 0.400242
123 2 0.97858 0.0617415 0.400242
378 2 0.980642 0.0638034 0.491665
398 2 0.980642 0.0617415 0.491665
478 2 0.97858 0.0638034 0.491665
498 2 0.97858 0.0617415 0.491665
508 1 0.89748 0.146965 0.383573
608 1 0.895419 0.146965 0.383573
758 1 0.982247 0.189348 0.445954
858 1 0.980185 0.189348 0.445954
1083 1 0.853035 0.189348 0.445954
1328 1 0.853035 0.062198 0.445954
1348 1 0.853035 0.0601362 0.445954
538 1 0.146965 0.396449 0.383573
1258 1 0.104581 0.311683 0.445954
1358 1 0.10252 0.311683 0.445954
33 2 0.230126 0.313288 0.400242
408 2 0.230126 0.313288 0.491665
563 1 0.396449 0.396449 0.383573
1283 1 0.354066 0.311683 0.445954
58 2 0.479611 0.313288 0.400242
433 2 0.479611 0.313288 0.491665
83 2 0.729095 0.313288 0.400242
458 2 0.729095 0.313288 0.491665
588 1 0.645934 0.396449 0.383573
1308 1 0.603551 0.311683 0.445954
8 2 0.980642 0.313288 0.400242
108 2 0.97858 0.313288 0.400242
383 2 0.980642 0.313288 0.491665
483 2 0.97858 0.313288 0.491665
513 1 0.89748 0.396449 0.383573
613 1 0.895419 0.396449 0.383573
1333 1 0.853035 0.311683 0.445954
1013 1 0.104581 0.438833 0.445954
1113 1 0.10252 0.438833 0.445954
1263 1 0.104581 0.561167 0.445954
1363 1 0.10252 0.561167 0.445954
38 2 0.230126 0.562772 0.400242
413 2 0.230126 0.562772 0.491665
788 1 0.231732 0.438833 0.445954
1038 1 0.354066 0.438833 0.445954
1288 1 0.354066 0.561167 0.445954
63 2 0.479611 0.562772 0.400242
438 2 0.479611 0.562772 0.491665
813 1 0.481216 0.438833 0.445954
88 2 0.729095 0.562772 0.400242
463 2 0.729095 0.562772 0.491665
838 1 0.730701 0.438833 0.445954
1063 1 0.603551 0.438833 0.445954
1313 1 0.603551 0.561167 0.445954
13 2 0.980642 0.562772 0.400242
113 2 0.97858 0.562772 0.400242
388 2 0.980642 0.562772 0.491665
488 2 0.97858 0.562772 0.491665
763 1 0.982247 0.438833 0.445954
863 1 0.980185 0.438833 0.445954
1088 1 0.853035 0.438833 0.445954
1338 1 0.853035 0.561167 0.445954
543 1 0.146965 0.645934 0.383573
1018 1 0.104581 0.688317 0.445954
1118 1 0.10252 0.688317 0.445954
568 1 0.396449 0.645934 0.383573
793 1 0.231732 0.688317 0.445954
1043 1 0.354066 0.688317 0.445954
818 1 0.481216 0.688317 0.445954
593 1 0.645934 0.645934 0.383573
843 1 0.730701 0.688317 0.445954
1068 1 0.603551 0.688317 0.445954
518 1 0.89748 0.645934 0.383573
618 1 0.895419 0.645934 0.383573
768 1 0.982247 0.688317 0.445954
868 1 0.980185 0.688317 0.445954
1093 1 0.853035 0.688317 0.445954
528 1 0.146965 0.89748 0.383573
548 1 0.146965 0.895419 0.383573
1003 1 0.104581 0.939864 0.445954
1023 1 0.104581 0.937802 0.445954
1103 1 0.10252 0.939864 0.445954
1123 1 0.10252 0.937802 0.445954
1268 1 0.104581 0.810652 0.445954
1368 1 0.10252 0.810652 0.445954
43 2 0.230126 0.812257 0.400242
418 2 0.230126 0.812257 0.491665
553 1 0.396449 0.89748 0.383573
573 1 0.396449 0.895419 0.383573
778 1 0.231732 0.939864 0.445954
798 1 0.231732 0.937802 0.445954
1028 1 0.354066 0.939864 0.445954
1048 1 0.354066 0.937802 0.445954
1293 1 0.354066 0.810652 0.445954
68 2 0.479611 0.812257 0.400242
443 2 0.479611 0.812257 0.491665
803 1 0.481216 0.939864 0.445954
823 1 0.481216 0.937802 0.445954
93 2 0.729095 0.812257 0.400242
468 2 0.729095 0.812257 0.491665
578 1 0.645934 0.89748 0.383573
598 1 0.645934 0.895419 0.383573
828 1 0.730701 0.939864 0.445954
848 1 0.730701 0.937802 0.445954
1053 1 0.603551 0.939864 0.445954
1073 1 0.603551 0.937802 0.445954
1318 1 0.603551 0.810652 0.445954
18 2 0.980642 0.812257 0.400242
118 2 0.97858 0.812257 0.400242
393 2 0.980642 0.812257 0.491665
493 2 0.97858 0.812257 0.491665
503 1 0.89748 0.89748 0.383573
523 1 0.89748 0.895419 0.383573
603 1 0.895419 0.89748 0.383573
623 1 0.895419 0.895419 0.383573
753 1 0.982247 0.939864 0.445954
773 1 0.982247 0.937802 0.445954
853 1 0.980185 0.939864 0.445954
873 1 0.980185 0.937802 0.445954
1078 1 0.853035 0.939864 0.445954
1098 1 0.853035 0.937802 0.445954
1343 1 0.853035 0.810652 0.445954
658 1 0.146965 0.146965 0.508335
878 1 0.062198 0.104581 0.570716
898 1 0.062198 0.10252 0.570716
978 1 0.0601362 0.104581 0.570716
998 1 0.0601362 0.10252 0.570716
1153 1 0.189348 0.104581 0.570716
1173 1 0.189348 0.10252 0.570716
683 1 0.396449 0.146965 0.508335
903 1 0.311683 0.104581 0.570716
923 1 0.311683 0.10252 0.570716
928 1 0.561167 0.104581 0.570716
948 1 0.561167 0.10252 0.570716
1178 1 0.438833 0.104581 0.570716
1198 1 0.438833 0.10252 0.570716
708 1 0.645934 0.146965 0.508335
1203 1 0.688317 0.104581 0.570716
1223 1 0.688317 0.10252 0.570716
633 1 0.89748 0.146965 0.508335
733 1 0.895419 0.146965 0.508335
953 1 0.810652 0.104581 0.570716
973 1 0.810652 0.10252 0.570716
1128 1 0.939864 0.104581 0.570716
1148 1 0.939864 0.10252 0.570716
1228 1 0.937802 0.104581 0.570716
1248 1 0.937802 0.10252 0.570716
133 2 0.0638034 0.230126 0.616427
233 2 0.0617415 0.230126 0.616427
258 2 0.0638034 0.230126 0.525004
358 2 0.0617415 0.230126 0.525004
663 1 0.146965 0.396449 0.508335
883 1 0.062198 0.354066 0.570716
983 1 0.0601362 0.354066 0.570716
1158 1 0.189348 0.354066 0.570716
1408 1 0.189348 0.231732 0.570716
158 2 0.313288 0.230126 0.616427
283 2 0.313288 0.230126 0.525004
688 1 0.396449 0.396449 0.508335
908 1 0.311683 0.354066 0.570716
183 2 0.562772 0.230126 0.616427
308 2 0.562772 0.230126 0.525004
933 1 0.561167 0.354066 0.570716
1183 1 0.438833 0.354066 0.570716
1433 1 0.438833 0.231732 0.570716
713 1 0.645934 0.396449 0.508335
1208 1 0.688317 0.354066 0.570716
1458 1 0.688317 0.231732 0.570716
208 2 0.812257 0.230126 0.616427
333 2 0.812257 0.230126 0.525004
638 1 0.89748 0.396449 0.508335
738 1 0.895419 0.396449 0.508335
958 1 0.810652 0.354066 0.570716
1133 1 0.939864 0.354066 0.570716
1233 1 0.937802 0.354066 0.570716
1383 1 0.939864 0.231732 0.570716
1483 1 0.937802 0.231732 0.570716
138 2 0.0638034 0.479611 0.616427
238 2 0.0617415 0.479611 0.616427
263 2 0.0638034 0.479611 0.525004
363 2 0.0617415 0.479611 0.525004
1413 1 0.189348 0.481216 0.570716
163 2 0.313288 0.479611 0.616427
288 2 0.313288 0.479611 0.525004
188 2 0.562772 0.479611 0.616427
313 2 0.562772 0.479611 0.525004
1438 1 0.438833 0.481216 0.570716
1463 1 0.688317 0.481216 0.570716
213 2 0.812257 0.479611 0.616427
338 2 0.812257 0.479611 0.525004
1388 1 0.939864 0.481216 0.570716
1488 1 0.937802 0.481216 0.570716
143 2 0.0638034 0.729095 0.616427
243 2 0.0617415 0.729095 0.616427
268 2 0.0638034 0.729095 0.525004
368 2 0.0617415 0.729095 0.525004
668 1 0.146965 0.645934 0.508335
888 1 0.062198 0.603551 0.570716
988 1 0.0601362 0.603551 0.570716
1163 1 0.189348 0.603551 0.570716
1418 1 0.189348 0.730701 0.570716
168 2 0.313288 0.729095 0.616427
293 2 0.313288 0.729095 0.525004
693 1 0.396449 0.645934 0.508335
913 1 0.311683 0.603551 0.570716
193 2 0.562772 0.729095 0.616427
318 2 0.562772 0.729095 0.525004
938 1 0.561167 0.603551 0.570716
1188 1 0.438833 0.603551 0.570716
1443 1 0.438833 0.730701 0.570716
718 1 0.645934 0.645934 0.508335
1213 1 0.688317 0.603551 0.570716
1468 1 0.688317 0.730701 0.570716
218 2 0.812257 0.729095 0.616427
343 2 0.812257 0.729095 0.525004
643 1 0.89748 0.645934 0.508335
743 1 0.895419 0.645934 0.508335
963 1 0.810652 0.603551 0.570716
1138 1 0.939864 0.603551 0.570716
1238 1 0.937802 0.603551 0.570716
1393 1 0.939864 0.730701 0.570716
1493 1 0.937802 0.730701 0.570716
128 2 0.0638034 0.980642 0.616427
148 2 0.0638034 0.97858 0.616427
228 2 0.0617415 0.980642 0.616427
248 2 0.0617415 0.97858 0.616427
253 2 0.0638034 0.980642 0.525004
273 2 0.0638034 0.97858 0.525004
353 2 0.0617415 0.980642 0.525004
373 2 0.0617415 0.97858 0.525004
653 1 0.146965 0.89748 0.508335
673 1 0.146965 0.895419 0.508335
893 1 0.062198 0.853035 0.570716
993 1 0.0601362 0.853035 0.570716
1168 1 0.189348 0.853035 0.570716
1403 1 0.189348 0.982247 0.570716
1423 1 0.189348 0.980185 0.570716
153 2 0.313288 0.980642 0.616427
173 2 0.313288 0.97858 0.616427
278 2 0.313288 0.980642 0.525004
298 2 0.313288 0.97858 0.525004
678 1 0.396449 0.89748 0.508335
698 1 0.396449 0.895419 0.508335
918 1 0.311683 0.853035 0.570716
178 2 0.562772 0.980642 0.616427
198 2 0.562772 0.97858 0.616427
303 2 0.562772 0.980642 0.525004
323 2 0.562772 0.97858 0.525004
943 1 0.561167 0.853035 0.570716
1193 1 0.438833 0.853035 0.570716
1428 1 0.438833 0.982247 0.570716
1448 1 0.438833 0.980185 0.570716
703 1 0.645934 0.89748 0.508335
723 1 0.645934 0.895419 0.508335
1218 1 0.688317 0.853035 0.570716
1453 1 0.688317 0.982247 0.570716
1473 1 0.688317 0.980185 0.570716
203 2 0.812257 0.980642 0.616427
223 2 0.812257 0.97858 0.616427
328 2 0.812257 0.980642 0.525004
348 2 0.812257 0.97858 0.525004
628 1 0.89748 0.89748 0.508335
648 1 0.89748 0.895419 0.508335
728 1 0.895419 0.89748 0.508335