ITEM: TIMESTEP
0
ITEM: NUMBER OF ATOMS
1500
ITEM: BOX BOUNDS pp pp pp
1.9888809999999999e+00 2.1388881000000001e+01
1.9888809999999999e+00 2.1388881000000001e+01
3.6374569999999999e+00 3.5137456999999998e+01
ITEM: ATOMS id type xs ys zs
656 1 0.185254 0.148493 0.035823
876 1 0.00751252 0.153522 0.113503
880 1 0.122341 0.184155 0.0471907
896 1 0.0669751 0.0892587 0.117037
900 1 0.113026 0.0731675 0.0234805
976 1 0.151892 0.0877645 0.103102
980 1 0.0767165 0.0860275 0.0625358
996 1 0.103907 0.169503 0.105557
1000 1 0.0609176 0.160339 0.0653883
1151 1 0.192057 0.161866 0.116782
1175 1 0.160241 0.0887263 0.0581834
1126 1 0.00827939 0.153042 0.113345
260 2 0.0801195 0.185971 0.00545065
230 2 0.0346668 0.00805541 0.103723
351 2 0.0695436 0.0121982 0.0639385
496 2 0.00493052 0.103575 0.0469458
1155 1 0.253659 0.164206 0.0672563
1171 1 0.234298 0.0857191 0.0986297
681 1 0.378633 0.183257 0.0297315
901 1 0.273851 0.165855 0.120727
905 1 0.294577 0.171766 0.0615717
921 1 0.327609 0.0977204 0.107689
925 1 0.342313 0.0822005 0.0417945
1401 1 0.230336 0.00842985 0.101022
1405 1 0.204976 0.00957592 0.0590127
175 2 0.37524 0.00563737 0.119027
296 2 0.319635 0.0113121 0.063459
401 2 0.207443 0.0491072 0.0189145
421 2 0.272075 0.103393 0.0296131
926 1 0.548069 0.166599 0.111685
930 1 0.518097 0.180024 0.0604109
946 1 0.565109 0.0883622 0.103819
950 1 0.588717 0.0898309 0.0434324
1176 1 0.463652 0.150369 0.121239
1180 1 0.47394 0.173246 0.0636339
1196 1 0.430645 0.0724911 0.109793
1200 1 0.40622 0.111509 0.0627885
321 2 0.558401 0.00728874 0.0630088
1426 1 0.435557 0.0168728 0.0434875
1430 1 0.476704 0.0142624 0.0837597
52 2 0.467627 0.149901 0.123978
426 2 0.424845 0.0227308 0.0369671
446 2 0.505541 0.105246 0.0320302
706 1 0.605892 0.1808 0.0317484
1201 1 0.675211 0.158933 0.113525
1205 1 0.68708 0.160715 0.0518923
1221 1 0.666863 0.075114 0.11287
1225 1 0.708 0.0842077 0.0675687
951 1 0.768556 0.165903 0.116405
955 1 0.746613 0.176904 0.0610326
200 2 0.614842 0.00836574 0.124334
1451 1 0.660046 0.0185374 0.0432686
225 2 0.760255 0.0150534 0.119096
350 2 0.782018 0.0161589 0.0068219
451 2 0.661141 0.0243058 0.0429864
471 2 0.748733 0.106722 0.0202189
631 1 0.948375 0.166499 0.0180006
971 1 0.80516 0.0933764 0.110725
975 1 0.81534 0.101994 0.0584809
1130 1 0.884796 0.0991558 0.0344157
1146 1 0.969982 0.0571255 0.108553
1150 1 0.952384 0.139123 0.0721904
1230 1 0.893226 0.177506 0.0701416
1246 1 0.869302 0.0434528 0.0954098
1250 1 0.908524 0.113138 0.104502
331 2 0.826351 0.199375 0.0438701
346 2 0.807543 0.00475511 0.0639174
1380 1 0.93612 0.00680692 0.0807933
1396 1 0.97027 0.0634962 0.112042
1496 1 0.870209 0.017534 0.111846
1500 1 0.869896 0.00754905 0.029105
396 2 0.947454 0.0448411 0.038725
135 2 0.0353378 0.255949 0.108208
235 2 0.134692 0.260709 0.107119
256 2 0.0213701 0.230273 0.0476236
356 2 0.136721 0.273657 0.047892
881 1 0.100139 0.34699 0.121565
885 1 0.10972 0.353599 0.0344864
981 1 0.0309939 0.332443 0.0666336
985 1 0.0897506 0.398979 0.0834617
481 2 0.0245966 0.350613 0.0379898
1156 1 0.207788 0.355509 0.115515
1160 1 0.201067 0.371282 0.0613363
1406 1 0.223796 0.256275 0.103405
1410 1 0.214932 0.234284 0.0427181
160 2 0.324673 0.261586 0.10958
281 2 0.358477 0.240994 0.0460232
906 1 0.306867 0.36086 0.105908
910 1 0.322979 0.348071 0.0456842
406 2 0.24589 0.312445 0.0279139
185 2 0.558957 0.265598 0.107925
931 1 0.5591 0.364747 0.105218
935 1 0.571454 0.348238 0.0461383
1181 1 0.438982 0.3527 0.114369
1185 1 0.429406 0.360834 0.0589307
1431 1 0.439386 0.246906 0.107891
1435 1 0.445279 0.249489 0.0454856
431 2 0.493449 0.3191 0.0258678
306 2 0.605457 0.23163 0.0434372
1206 1 0.689042 0.352725 0.11444
1210 1 0.679358 0.363232 0.0591849
1456 1 0.680838 0.257099 0.107176
1460 1 0.693428 0.245311 0.0494408
210 2 0.782539 0.262562 0.105935
956 1 0.782727 0.36022 0.1061
960 1 0.789469 0.346317 0.0514562
456 2 0.729586 0.309802 0.0229975
731 1 0.827052 0.200189 0.0420813
636 1 0.916633 0.396326 0.0302036
1131 1 0.949267 0.398901 0.121056
1135 1 0.948198 0.345975 0.0801955
1231 1 0.882755 0.326986 0.122712
1235 1 0.864006 0.320774 0.061551
1381 1 0.949807 0.250183 0.106776
1385 1 0.944943 0.226909 0.0500663
1481 1 0.874677 0.228835 0.107174
1485 1 0.861705 0.303958 0.0608356
381 2 0.937026 0.297285 0.0269984
661 1 0.146156 0.42418 0.0267154
140 2 0.0245851 0.50651 0.117856
240 2 0.142844 0.468185 0.107671
261 2 0.0449452 0.458491 0.0559821
361 2 0.131988 0.524294 0.0508231
886 1 0.108997 0.578594 0.116217
986 1 0.0118643 0.580796 0.0887719
486 2 0.013609 0.588513 0.0186957
686 1 0.367891 0.42098 0.0347467
1411 1 0.228528 0.487358 0.10395
1415 1 0.219983 0.468032 0.044069
165 2 0.322669 0.491128 0.106781
286 2 0.347295 0.444145 0.0463384
915 1 0.320799 0.597315 0.0468685
411 2 0.249032 0.550628 0.0279722
190 2 0.552789 0.488402 0.10581
311 2 0.595119 0.447422 0.0461636
1436 1 0.440041 0.482204 0.106171
1440 1 0.446862 0.474242 0.0457634
940 1 0.56716 0.595677 0.0459311
436 2 0.488723 0.553297 0.0269079
711 1 0.616022 0.42251 0.0341785
1461 1 0.680885 0.483333 0.106595
1465 1 0.694573 0.47217 0.0471575
215 2 0.783434 0.48728 0.103898
961 1 0.789635 0.597883 0.107255
965 1 0.788378 0.589745 0.0520995
461 2 0.724678 0.546861 0.0231071
736 1 0.837443 0.428329 0.0417546
336 2 0.815233 0.43381 0.0440451
1386 1 0.946239 0.472423 0.0976034
1390 1 0.959281 0.451655 0.0517216
1486 1 0.886369 0.524774 0.112631
1490 1 0.86652 0.524154 0.0539928
1236 1 0.903888 0.549791 0.11356
1240 1 0.872821 0.571664 0.0545619
112 2 0.900071 0.545084 0.123759
386 2 0.950609 0.527239 0.0351773
145 2 0.0245187 0.720909 0.123307
245 2 0.136123 0.679349 0.0977378
266 2 0.0360621 0.699811 0.0448754
366 2 0.147126 0.752834 0.0551081
666 1 0.144274 0.668649 0.0238692
890 1 0.0964886 0.601681 0.034551
990 1 0.0660217 0.635835 0.0781353
991 1 0.0312962 0.786459 0.0801799
491 2 0.0354302 0.78635 0.0513522
1161 1 0.208437 0.602341 0.115993
1165 1 0.200659 0.612209 0.0592237
1416 1 0.217493 0.736695 0.105113
1420 1 0.229787 0.708306 0.0425503
170 2 0.316125 0.721035 0.10937
291 2 0.346109 0.696734 0.0491792
691 1 0.373757 0.668611 0.0336428
911 1 0.308985 0.601939 0.106194
195 2 0.551075 0.719944 0.107438
316 2 0.594312 0.698656 0.0479826
936 1 0.560447 0.601813 0.105988
1186 1 0.438124 0.604259 0.11415
1190 1 0.432421 0.607945 0.058481
1441 1 0.438838 0.732798 0.106938
1445 1 0.446541 0.718834 0.0471402
716 1 0.620195 0.668893 0.0331513
1211 1 0.688935 0.604178 0.114386
1215 1 0.682354 0.609076 0.0588347
1466 1 0.679449 0.73405 0.107127
1470 1 0.695038 0.713999 0.0487122
220 2 0.780358 0.720816 0.107645
466 2 0.699439 0.796631 0.0288587
341 2 0.812017 0.680103 0.0479939
641 1 0.910129 0.657596 0.0245055
741 1 0.825736 0.677584 0.047541
1136 1 0.937453 0.641458 0.119515
1140 1 0.953895 0.622397 0.0649453
1391 1 0.94971 0.719562 0.0980999
1395 1 0.94722 0.71468 0.0502224
1491 1 0.883696 0.755669 0.119953
1495 1 0.867811 0.76192 0.0601915
1245 1 0.860462 0.799942 0.0667139
117 2 0.885719 0.763184 0.12455
146 2 0.00519279 0.941771 0.122068
150 2 0.139 0.873999 0.0932264
251 2 0.0259621 0.898409 0.0439572
255 2 0.101744 0.879189 0.0226088
271 2 0.138011 0.97805 0.0739738
275 2 0.022439 0.966946 0.0325613
371 2 0.160257 0.934871 0.0291918
891 1 0.0896916 0.813872 0.114295
895 1 0.111918 0.822586 0.0518181
995 1 0.0226764 0.860347 0.0809682
416 2 0.199199 0.806417 0.0250315
651 1 0.225863 0.887377 0.0346669
671 1 0.201838 0.805614 0.0245192
1170 1 0.232474 0.844302 0.0771834
1421 1 0.248646 0.918841 0.111917
1425 1 0.258872 0.951389 0.0529175
155 2 0.341609 0.887553 0.108279
276 2 0.336304 0.904845 0.0378677
676 1 0.358113 0.913987 0.0397413
696 1 0.398486 0.819169 0.032084
916 1 0.294716 0.812525 0.108153
920 1 0.305791 0.809721 0.0479737
180 2 0.581388 0.891455 0.110074
301 2 0.563007 0.907996 0.0437166
941 1 0.541203 0.814545 0.10617
945 1 0.563891 0.815002 0.04917
1191 1 0.430696 0.834103 0.121129
1195 1 0.457141 0.85755 0.0706573
1446 1 0.449234 0.929609 0.10498
1450 1 0.460245 0.929634 0.0401077
441 2 0.475771 0.800265 0.0292043
701 1 0.608857 0.914517 0.0411336
721 1 0.648058 0.819997 0.0302274
1216 1 0.676076 0.832121 0.120522
1220 1 0.702353 0.859483 0.0686232
1455 1 0.703406 0.994765 0.0841944
1471 1 0.680485 0.925854 0.106996
1475 1 0.71299 0.930239 0.0386402
205 2 0.771207 0.903916 0.110317
746 1 0.793415 0.855854 0.0158165
966 1 0.772324 0.815171 0.110071
970 1 0.783663 0.810131 0.0533936
326 2 0.822304 0.916381 0.0608815
626 1 0.94818 0.885047 0.0249248
646 1 0.928679 0.808664 0.0215926
726 1 0.820681 0.917702 0.0605197
730 1 0.875537 0.892639 0.00925044
1145 1 0.945335 0.833366 0.0839016
1241 1 0.873264 0.822352 0.123021
1376 1 0.956759 0.909845 0.0898928
1400 1 0.958899 0.971364 0.0195867
1476 1 0.881618 0.918532 0.111371
1480 1 0.914417 0.943271 0.0572159
391 2 0.932431 0.809831 0.0294323
226 2 0.0573937 0.0142088 0.183111
246 2 0.134986 0.0557142 0.150946
532 1 0.182366 0.159901 0.139941
1107 1 0.0820996 0.198369 0.217095
1252 1 0.159313 0.122724 0.201062
1272 1 0.0872388 0.0546493 0.22217
1352 1 0.0633597 0.12398 0.199699
1372 1 0.176076 0.0396363 0.197734
397 2 0.00605745 0.0477866 0.245969
171 2 0.277935 0.00533166 0.139906
27 2 0.21061 0.163593 0.136813
47 2 0.254425 0.0779946 0.176171
422 2 0.252147 0.0283387 0.246035
557 1 0.399127 0.157186 0.140015
1277 1 0.331153 0.11451 0.201067
1297 1 0.381402 0.0394917 0.20892
196 2 0.509156 0.000615876 0.137089
72 2 0.456531 0.0670503 0.17467
447 2 0.468387 0.0273782 0.247055
807 1 0.478771 0.194144 0.19627
1302 1 0.568967 0.115793 0.199893
77 2 0.728943 0.159293 0.13005
97 2 0.699944 0.0588941 0.16924
472 2 0.719878 0.0309113 0.245421
582 1 0.648622 0.160633 0.139054
832 1 0.727614 0.195273 0.198157
1322 1 0.624801 0.0456079 0.208707
1226 1 0.855988 0.151802 0.139021
221 2 0.818593 0.0309879 0.169767
2 2 0.998729 0.158689 0.135453
22 2 0.990808 0.0708225 0.165842
102 2 0.861154 0.150698 0.137838
122 2 0.91004 0.0504506 0.180273
507 1 0.974883 0.172552 0.144675
607 1 0.859068 0.152441 0.138642
857 1 0.924025 0.191322 0.206547
1327 1 0.846697 0.121413 0.199831
1347 1 0.804527 0.0400691 0.199715
131 2 0.0143376 0.23242 0.182069
231 2 0.13528 0.259173 0.16691
1007 1 0.170191 0.206507 0.207634
757 1 0.00685327 0.228555 0.189809
537 1 0.17042 0.392127 0.147582
1257 1 0.167106 0.317839 0.209186
1357 1 0.0758499 0.333587 0.200159
382 2 0.0156517 0.334327 0.247328
156 2 0.330865 0.222893 0.175353
782 1 0.261275 0.201681 0.198474
1032 1 0.358235 0.207237 0.195432
32 2 0.236583 0.335444 0.15002
407 2 0.245709 0.326189 0.248072
562 1 0.399152 0.39484 0.137701
1282 1 0.35508 0.316811 0.195627
181 2 0.577395 0.225617 0.175071
57 2 0.467522 0.324642 0.15491
432 2 0.474708 0.318148 0.244153
1057 1 0.608021 0.207216 0.195223
82 2 0.714537 0.328157 0.155904
457 2 0.720556 0.319462 0.243799
587 1 0.64788 0.395171 0.137869
1307 1 0.603078 0.31702 0.195973
206 2 0.82038 0.222787 0.17506
1082 1 0.829846 0.216166 0.194395
7 2 0.981692 0.330542 0.161207
107 2 0.886227 0.31929 0.127114
612 1 0.845448 0.397091 0.144043
1332 1 0.847545 0.312615 0.19635
136 2 0.0408308 0.416617 0.156673
236 2 0.121693 0.506833 0.170202
1012 1 0.160437 0.415707 0.196718
1112 1 0.0723638 0.451198 0.215738
1262 1 0.16827 0.567626 0.206907
1362 1 0.0763476 0.582175 0.198455
387 2 0.0162887 0.56603 0.245548
762 1 0.000330144 0.414049 0.19429
161 2 0.3229 0.468612 0.175588
37 2 0.234128 0.577166 0.148739
412 2 0.244577 0.572301 0.248492
787 1 0.251578 0.445142 0.19675
1037 1 0.354873 0.437607 0.195823
1287 1 0.354936 0.566312 0.19559
186 2 0.572655 0.469948 0.174845
62 2 0.469671 0.572041 0.153703
437 2 0.475362 0.566099 0.244129
812 1 0.476125 0.438624 0.195785
87 2 0.717657 0.573927 0.153952
462 2 0.722471 0.566984 0.24384
837 1 0.725652 0.438639 0.196566
1062 1 0.604623 0.43787 0.195815
1312 1 0.603492 0.566047 0.195737
211 2 0.817062 0.461182 0.171784
512 1 0.941232 0.411555 0.138502
12 2 0.98942 0.587707 0.161844
862 1 0.929601 0.473974 0.200583
1087 1 0.838196 0.433618 0.196276
1337 1 0.847587 0.562525 0.196091
141 2 0.153667 0.757818 0.155115
241 2 0.0621651 0.693418 0.171807
542 1 0.168912 0.645827 0.149911
1017 1 0.160827 0.67441 0.191358
1117 1 0.0754834 0.678309 0.226271
1267 1 0.165992 0.779136 0.194942
1367 1 0.0659862 0.774235 0.204119
166 2 0.325122 0.718135 0.175926
567 1 0.399676 0.643842 0.137787
792 1 0.252106 0.691347 0.197484
1042 1 0.35699 0.68661 0.196149
1292 1 0.350677 0.788581 0.193553
191 2 0.5745 0.719673 0.175124
817 1 0.475976 0.687317 0.195531
442 2 0.467216 0.796649 0.243755
592 1 0.648448 0.643949 0.137808
842 1 0.725813 0.686717 0.196022
1067 1 0.606239 0.68757 0.195976
467 2 0.707153 0.791527 0.243834
1317 1 0.60075 0.785557 0.193336
216 2 0.811745 0.705289 0.174173
517 1 0.943245 0.645168 0.133734
617 1 0.846064 0.645871 0.14591
767 1 0.988925 0.651077 0.20878
867 1 0.930758 0.712302 0.193104
1092 1 0.837331 0.684855 0.196488
1342 1 0.841879 0.783797 0.194301
126 2 0.073253 0.938598 0.155803
130 2 0.0711461 0.852798 0.155804
250 2 0.160015 0.965803 0.131124
527 1 0.187447 0.904247 0.162913
547 1 0.194946 0.837629 0.127376
1002 1 0.13791 0.979652 0.22814
1022 1 0.112985 0.855754 0.208006
1102 1 0.0687807 0.926851 0.227311
1122 1 0.17851 0.907818 0.211108
392 2 0.0120201 0.810487 0.249533
752 1 0.00515258 0.879399 0.20604
1166 1 0.202799 0.823978 0.133866
151 2 0.337463 0.946419 0.178954
42 2 0.232877 0.816099 0.141792
417 2 0.231327 0.804082 0.248746
552 1 0.387433 0.939136 0.162128
777 1 0.246013 0.969144 0.195769
797 1 0.266333 0.875407 0.20692
1027 1 0.335814 0.958829 0.188837
1047 1 0.37078 0.874313 0.217771
176 2 0.579599 0.94152 0.181287
572 1 0.413355 0.83659 0.134598
67 2 0.468195 0.807855 0.149027
802 1 0.514201 0.968405 0.196829
822 1 0.467656 0.885309 0.199355
92 2 0.712493 0.80932 0.149152
577 1 0.634387 0.936339 0.163351
597 1 0.661009 0.835196 0.134649
827 1 0.718467 0.96122 0.194049
847 1 0.735845 0.873422 0.207359
1052 1 0.601747 0.95918 0.184575
1072 1 0.604197 0.87151 0.220759
201 2 0.80953 0.923911 0.174417
1141 1 0.966006 0.851555 0.136012
17 2 0.970617 0.806415 0.16512
502 1 0.926251 0.945354 0.153604
522 1 0.961238 0.852225 0.140145
602 1 0.826504 0.915007 0.163327
622 1 0.867875 0.823628 0.127886
772 1 0.999139 0.967636 0.208587
852 1 0.920929 0.972335 0.201474
872 1 0.919078 0.874723 0.203199
1077 1 0.830167 0.947521 0.192305
1097 1 0.836427 0.865455 0.22389
377 2 0.00288132 0.150631 0.25597
657 1 0.154805 0.15605 0.26123
877 1 0.126286 0.164686 0.32245
897 1 0.12373 0.0714264 0.328826
977 1 0.0401537 0.0742361 0.31841
997 1 0.0432792 0.158522 0.318985
227 2 0.0402251 0.0131061 0.358097
252 2 0.145801 0.0164715 0.268993
352 2 0.0528934 0.00770001 0.28615
402 2 0.225753 0.147439 0.262736
1152 1 0.220255 0.163956 0.323831
1172 1 0.207569 0.0786559 0.318413
682 1 0.396067 0.146811 0.259481
902 1 0.294538 0.165065 0.322407
922 1 0.333687 0.0854937 0.320947
152 2 0.328952 0.0130024 0.3651
277 2 0.334929 0.00906573 0.279513
427 2 0.466997 0.143744 0.263455
927 1 0.547698 0.165785 0.322409
947 1 0.57854 0.0834725 0.32092
1177 1 0.420035 0.15263 0.320583
1197 1 0.472863 0.0700059 0.320747
177 2 0.571524 0.0147391 0.366591
302 2 0.573447 0.0125447 0.276794
1427 1 0.408522 0.00145971 0.322523
452 2 0.709281 0.141745 0.262813
707 1 0.645987 0.147669 0.259201
1202 1 0.669595 0.152515 0.320832
1222 1 0.721513 0.0693858 0.319374
952 1 0.780502 0.165207 0.321653
972 1 0.773741 0.074242 0.31942
1452 1 0.653955 0.00430918 0.321933
477 2 0.877217 0.126631 0.256081
497 2 0.910234 0.0175799 0.251503
632 1 0.956026 0.184515 0.267857
732 1 0.850756 0.145633 0.261507
1127 1 0.958807 0.173488 0.322947
1147 1 0.956613 0.0886865 0.328926
1227 1 0.872707 0.169385 0.32309
1247 1 0.873219 0.0843692 0.316797
202 2 0.810474 0.00871358 0.364139
1377 1 0.882779 0.00189046 0.325587
1477 1 0.96667 0.00764769 0.314607
232 2 0.0412096 0.249572 0.361341
257 2 0.153388 0.222946 0.257222
357 2 0.0467108 0.250299 0.282751
662 1 0.147752 0.397848 0.260491
882 1 0.113388 0.329094 0.32243
982 1 0.0394345 0.387517 0.320012
1407 1 0.197367 0.256262 0.321995
1157 1 0.20693 0.357666 0.320304
157 2 0.325197 0.238471 0.369985
282 2 0.326079 0.239004 0.274561
687 1 0.397454 0.395752 0.259553
907 1 0.316606 0.354672 0.320686
182 2 0.572128 0.238657 0.370936
307 2 0.572879 0.239985 0.273733
932 1 0.565853 0.354619 0.320498
1182 1 0.437737 0.354947 0.320374
1432 1 0.444112 0.247113 0.320812
712 1 0.646979 0.396399 0.259485
1207 1 0.687127 0.356505 0.320639
1457 1 0.691603 0.247704 0.320675
957 1 0.793214 0.351169 0.320104
482 2 0.901065 0.309136 0.259734
207 2 0.804869 0.230897 0.373853
332 2 0.806201 0.23191 0.269411
737 1 0.843711 0.392885 0.257127
1132 1 0.971332 0.321664 0.320277
1232 1 0.88913 0.370085 0.321364
1382 1 0.968413 0.267694 0.32084
1482 1 0.876301 0.261165 0.32325
237 2 0.0360824 0.472666 0.363753
262 2 0.149876 0.46598 0.258979
362 2 0.0381964 0.473867 0.28108
1412 1 0.195435 0.479136 0.32245
887 1 0.117894 0.568525 0.323808
162 2 0.317929 0.47462 0.36866
287 2 0.318372 0.473612 0.277533
187 2 0.566069 0.475612 0.368839
312 2 0.566408 0.47534 0.277356
1437 1 0.439279 0.47617 0.320535
1462 1 0.687501 0.476715 0.320798
212 2 0.797615 0.466354 0.369423
337 2 0.797958 0.466859 0.274055
487 2 0.901053 0.5523 0.263424
637 1 0.944271 0.416059 0.260049
1387 1 0.965399 0.494602 0.321009
1487 1 0.877405 0.479059 0.322343
1237 1 0.880869 0.582846 0.321728
242 2 0.0344289 0.707407 0.365229
267 2 0.151541 0.717332 0.260661
367 2 0.0363936 0.709495 0.282612
667 1 0.151629 0.644683 0.262024
987 1 0.0502073 0.626866 0.319177
1417 1 0.195493 0.72856 0.323035
1162 1 0.206927 0.609432 0.31979
167 2 0.319043 0.72097 0.368203
292 2 0.320804 0.722146 0.277805
692 1 0.396856 0.645981 0.2593
912 1 0.316258 0.603149 0.320599
192 2 0.566857 0.722782 0.368354
317 2 0.568055 0.723874 0.27755
937 1 0.565758 0.60313 0.32052
1187 1 0.437656 0.60465 0.320327
1442 1 0.438662 0.725737 0.321509
717 1 0.646549 0.646205 0.259337
1212 1 0.687396 0.606828 0.320368
1467 1 0.686858 0.726114 0.321313
217 2 0.794259 0.712161 0.367532
342 2 0.797116 0.715607 0.275345
962 1 0.789006 0.60253 0.319976
492 2 0.906243 0.759402 0.253792
642 1 0.944745 0.656923 0.263086
742 1 0.84218 0.643834 0.257288
1137 1 0.961717 0.618297 0.322137
1392 1 0.967082 0.754125 0.322059
1492 1 0.882903 0.713607 0.321408
147 2 0.128099 0.880625 0.372559
247 2 0.0234544 0.91381 0.371757
272 2 0.134115 0.858777 0.258435
372 2 0.0402944 0.910087 0.289694
652 1 0.175361 0.968076 0.259401
672 1 0.142807 0.850784 0.256053
892 1 0.120214 0.840335 0.319147
992 1 0.0417883 0.811076 0.328882
1422 1 0.184463 0.925853 0.318242
1167 1 0.215362 0.832446 0.321552
1402 1 0.234119 0.997578 0.326059
297 2 0.309781 0.898706 0.254968
697 1 0.39331 0.842096 0.260501
917 1 0.313234 0.847727 0.32108
677 1 0.414269 0.943145 0.261544
322 2 0.555939 0.899803 0.253243
942 1 0.563349 0.847678 0.321063
1192 1 0.434076 0.839134 0.321069
1447 1 0.47268 0.930937 0.321597
702 1 0.66199 0.945029 0.259892
722 1 0.64354 0.841851 0.260015
1217 1 0.684564 0.838454 0.320771
1472 1 0.713069 0.932308 0.319394
347 2 0.777836 0.894148 0.255622
967 1 0.784875 0.844553 0.321514
327 2 0.816023 0.995454 0.276574
627 1 0.952322 0.926559 0.256161
647 1 0.923899 0.851537 0.27366
727 1 0.844974 0.962977 0.265426
747 1 0.822006 0.852916 0.254837
1142 1 0.958838 0.837331 0.312538
1242 1 0.876119 0.822206 0.330612
1397 1 0.963202 0.925167 0.323048
1497 1 0.868256 0.915312 0.323206
127 2 0.143547 0.00812993 0.382406
533 1 0.156594 0.1493 0.383326
1253 1 0.16427 0.113046 0.442913
1273 1 0.0702426 0.0273974 0.439376
1353 1 0.0733498 0.119582 0.452787
1373 1 0.157552 0.0222279 0.45995
3 2 0.0284848 0.151518 0.39185
23 2 0.00668274 0.0584437 0.403229
398 2 0.00788956 0.0476398 0.481054
28 2 0.219925 0.148313 0.376863
48 2 0.250716 0.0472533 0.405673
423 2 0.258267 0.0415738 0.483788
558 1 0.397022 0.147016 0.384118
783 1 0.256105 0.196514 0.445853
1278 1 0.328039 0.114656 0.446832
1298 1 0.388404 0.0434453 0.443819
53 2 0.464123 0.143143 0.379199
73 2 0.471925 0.034308 0.403947
448 2 0.468452 0.0325553 0.48795
808 1 0.478917 0.195166 0.446112
1303 1 0.568429 0.118331 0.448481
78 2 0.707557 0.143507 0.377973
98 2 0.723036 0.0424155 0.406155
473 2 0.719547 0.0361468 0.489513
583 1 0.645267 0.146666 0.384095
833 1 0.728625 0.194543 0.446067
1323 1 0.628112 0.0510658 0.442783
103 2 0.867398 0.128698 0.379926
123 2 0.90963 0.0381147 0.41214
478 2 0.882024 0.127353 0.49875
498 2 0.912448 0.0207564 0.494392
508 1 0.958862 0.176958 0.378132
608 1 0.848762 0.144331 0.381356
858 1 0.925586 0.183992 0.441863
1328 1 0.842308 0.119751 0.443161
1348 1 0.808247 0.0399479 0.451156
132 2 0.149988 0.227809 0.388295
1008 1 0.164677 0.212825 0.450322
1108 1 0.0794675 0.208028 0.442289
538 1 0.146633 0.395906 0.384004
1258 1 0.164818 0.294857 0.446857
1358 1 0.0854709 0.334211 0.445633
8 2 0.0118634 0.328779 0.402359
383 2 0.0128963 0.328346 0.489372
1033 1 0.358238 0.207502 0.445122
33 2 0.240472 0.325274 0.398844
408 2 0.238792 0.32495 0.494164
563 1 0.395627 0.397545 0.383848
1283 1 0.354497 0.316249 0.445334
58 2 0.474814 0.31703 0.40056
433 2 0.474942 0.317371 0.493017
1058 1 0.608068 0.207993 0.444801
83 2 0.722497 0.319578 0.400514
458 2 0.720982 0.318419 0.49251
588 1 0.64513 0.397659 0.383767
1308 1 0.603136 0.316493 0.445267
758 1 0.997252 0.232685 0.449755
1083 1 0.831461 0.215895 0.446663
108 2 0.899941 0.307498 0.381705
613 1 0.841406 0.393816 0.384905
1333 1 0.846925 0.313704 0.446105
137 2 0.143225 0.465171 0.388697
1013 1 0.152726 0.420569 0.445591
1113 1 0.0694232 0.471884 0.445181
1263 1 0.165032 0.54644 0.446795
1363 1 0.0835261 0.580909 0.445712
13 2 0.0128932 0.570877 0.401284
388 2 0.0134474 0.57094 0.490332
763 1 0.00140862 0.407244 0.445887
38 2 0.239982 0.572332 0.398003
413 2 0.238625 0.57165 0.49545
788 1 0.247314 0.444006 0.445492
1038 1 0.355071 0.437697 0.445253
1288 1 0.354446 0.565656 0.445341
63 2 0.47579 0.565957 0.40057
438 2 0.475515 0.565831 0.493214
813 1 0.476561 0.439681 0.445195
88 2 0.724346 0.567494 0.400476
463 2 0.722908 0.566508 0.492855
838 1 0.726131 0.439043 0.446132
1063 1 0.604681 0.437802 0.445264
1313 1 0.602962 0.565416 0.445205
513 1 0.94336 0.415507 0.383332
113 2 0.901617 0.552565 0.378289
863 1 0.931508 0.472519 0.446122
1088 1 0.839323 0.434153 0.445813
1338 1 0.847479 0.563378 0.446056
142 2 0.142888 0.712223 0.388122
543 1 0.147291 0.645995 0.383743
1018 1 0.152799 0.670115 0.445889
1118 1 0.0706204 0.722358 0.44385
768 1 0.00481022 0.654943 0.446269
1268 1 0.163467 0.793418 0.446867
1368 1 0.0729654 0.756688 0.445434
568 1 0.396132 0.647085 0.383762
793 1 0.247951 0.691314 0.445388
1043 1 0.35682 0.687334 0.445616
1293 1 0.350442 0.791452 0.445145
818 1 0.476766 0.687926 0.445272
68 2 0.469449 0.797947 0.39924
443 2 0.468165 0.797992 0.493107
593 1 0.64568 0.647312 0.383679
843 1 0.726512 0.687219 0.446042
1068 1 0.606024 0.687899 0.445524
93 2 0.713659 0.797742 0.400027
468 2 0.70974 0.795151 0.491836
1318 1 0.602959 0.788476 0.444808
518 1 0.943744 0.660365 0.38321
618 1 0.841253 0.643343 0.384792
868 1 0.932211 0.712639 0.443692
1093 1 0.837608 0.684583 0.445623
118 2 0.896746 0.778412 0.382358
1343 1 0.844774 0.786216 0.446536
528 1 0.179313 0.953254 0.392701
548 1 0.142596 0.84881 0.382411
1003 1 0.130166 0.980945 0.402386
1023 1 0.104232 0.863618 0.430061
1103 1 0.084605 0.943499 0.472093
1123 1 0.168715 0.920313 0.452689
18 2 0.00370384 0.812378 0.399945
393 2 0.0148903 0.8144 0.48783
753 1 0.0142795 0.885873 0.444038
773 1 0.0228724 0.976242 0.438259
172 2 0.308344 0.901144 0.385427
43 2 0.232223 0.806949 0.393739
418 2 0.232055 0.80505 0.498466
573 1 0.393024 0.842993 0.381554
778 1 0.245042 0.969846 0.442585
798 1 0.26329 0.877875 0.44825
1028 1 0.329339 0.97219 0.446514
1048 1 0.364677 0.886552 0.445873
197 2 0.551779 0.901022 0.387675
553 1 0.415988 0.943543 0.384277
803 1 0.514185 0.968014 0.446056
823 1 0.466862 0.884667 0.446335
1073 1 0.585063 0.880354 0.446725
222 2 0.758997 0.906852 0.381148
578 1 0.656658 0.947752 0.384621
598 1 0.643815 0.842962 0.381984
828 1 0.706781 0.960427 0.445828
848 1 0.752093 0.880806 0.447304
1053 1 0.609128 0.964612 0.446961
503 1 0.927449 0.954584 0.377695
523 1 0.962657 0.848748 0.387528
603 1 0.853481 0.922758 0.397555
623 1 0.852605 0.820447 0.379747
853 1 0.934061 0.962131 0.446078
873 1 0.923581 0.86909 0.448956
1078 1 0.841459 0.958945 0.438891
1098 1 0.826791 0.87687 0.454854
378 2 0.0093047 0.15133 0.503562
658 1 0.148659 0.1562 0.507181
878 1 0.126494 0.164704 0.57129
898 1 0.123413 0.0707014 0.578939
978 1 0.0405873 0.0759104 0.564724
998 1 0.0432295 0.159424 0.569389
228 2 0.0405228 0.0120747 0.603919
253 2 0.148546 0.0281353 0.520274
353 2 0.0511261 0.0112815 0.527781
403 2 0.225646 0.148125 0.512499
1153 1 0.220237 0.163918 0.573569
1173 1 0.208391 0.0787091 0.568071
683 1 0.395937 0.146678 0.508736
903 1 0.294602 0.164958 0.57179
923 1 0.334223 0.0853714 0.570357
153 2 0.329064 0.0124954 0.614155
278 2 0.328984 0.0102404 0.528377
428 2 0.466638 0.142236 0.51286
928 1 0.547612 0.165686 0.571883
948 1 0.578868 0.0833723 0.570403
1178 1 0.42 0.152504 0.570178
1198 1 0.472911 0.0697316 0.569942
178 2 0.571552 0.0143892 0.615788
303 2 0.570609 0.0138974 0.525334
1428 1 0.408023 0.00172742 0.570674
453 2 0.708801 0.14203 0.512523
708 1 0.645992 0.147317 0.508422
1203 1 0.6695 0.152421 0.570424
1223 1 0.721471 0.0693015 0.568668
953 1 0.780636 0.165463 0.570604
973 1 0.773353 0.0743809 0.568951
1453 1 0.653708 0.00438027 0.570719
633 1 0.953846 0.182603 0.520297
733 1 0.848682 0.144068 0.507734
1128 1 0.958699 0.173998 0.575405
1148 1 0.957038 0.0891209 0.571349
1228 1 0.872538 0.169768 0.571163
1248 1 0.87266 0.0847473 0.570126
203 2 0.81 0.00669337 0.612302
328 2 0.816026 0.000146328 0.524966
1378 1 0.883187 0.00194153 0.572538
1478 1 0.967798 0.00699109 0.56245
233 2 0.0418874 0.250079 0.610173
258 2 0.149001 0.220797 0.501767
358 2 0.0465815 0.251674 0.531037
663 1 0.146826 0.39713 0.508842
883 1 0.11338 0.328976 0.571853
983 1 0.039336 0.387651 0.568917
1408 1 0.196879 0.255898 0.570671
1158 1 0.206889 0.357686 0.569867
158 2 0.325187 0.238748 0.619251
283 2 0.32517 0.240073 0.523498
688 1 0.397652 0.395589 0.508589
908 1 0.316636 0.354698 0.570148
183 2 0.572144 0.238852 0.620237
308 2 0.572529 0.239944 0.522815
933 1 0.565893 0.354614 0.569958
1183 1 0.437686 0.354993 0.569963
1433 1 0.444147 0.246974 0.570241
713 1 0.647147 0.396307 0.508499
1208 1 0.687091 0.356551 0.570232
1458 1 0.691672 0.247576 0.570144
958 1 0.79326 0.351132 0.569621
483 2 0.900981 0.309519 0.509691
208 2 0.804687 0.230791 0.623255
333 2 0.806408 0.231874 0.51798
738 1 0.843543 0.392515 0.506492
1133 1 0.971377 0.32174 0.569793
1233 1 0.889129 0.370109 0.570892
1383 1 0.968417 0.267678 0.569801
1483 1 0.876137 0.261081 0.573044
238 2 0.0363538 0.472635 0.612732
263 2 0.144091 0.462415 0.503315
363 2 0.038854 0.475817 0.528825
1413 1 0.194701 0.478909 0.570846
888 1 0.117916 0.568506 0.573284
163 2 0.317786 0.474669 0.617453
288 2 0.317825 0.474341 0.52523
188 2 0.566026 0.475644 0.617748
313 2 0.566334 0.475456 0.525333
1438 1 0.439272 0.476113 0.569958
1463 1 0.687533 0.476652 0.570239
213 2 0.797454 0.466349 0.61867
338 2 0.797908 0.467114 0.523074
488 2 0.901241 0.551503 0.513199
638 1 0.944459 0.416758 0.509162
1388 1 0.965576 0.494155 0.570135
1488 1 0.877442 0.479191 0.571808
1238 1 0.880932 0.582987 0.571285
243 2 0.0348821 0.70715 0.614058
268 2 0.143073 0.710521 0.503125
368 2 0.0377669 0.711525 0.529958
668 1 0.147188 0.645403 0.50902
988 1 0.0502747 0.627065 0.56784
1418 1 0.19441 0.728594 0.570869
1163 1 0.206821 0.609501 0.569384
168 2 0.318803 0.720986 0.616898
293 2 0.320605 0.722068 0.525177
693 1 0.396984 0.645809 0.508426
913 1 0.31631 0.603133 0.570037
193 2 0.566784 0.722827 0.617202
318 2 0.568203 0.724025 0.525244
938 1 0.565766 0.603152 0.569971
1188 1 0.437626 0.604682 0.56991
1443 1 0.438652 0.72569 0.570918
718 1 0.646728 0.645991 0.50843
1213 1 0.68733 0.606889 0.569959
1468 1 0.686909 0.726068 0.570719
218 2 0.794067 0.712221 0.616648
343 2 0.797559 0.716194 0.524016
963 1 0.789068 0.602557 0.569428
493 2 0.909688 0.759498 0.504381
643 1 0.947325 0.65641 0.509297
743 1 0.842625 0.643802 0.506725
1138 1 0.961841 0.61835 0.571732
1393 1 0.967229 0.753699 0.571647
1493 1 0.882903 0.713554 0.570735
148 2 0.127948 0.880401 0.622055
248 2 0.0237421 0.913942 0.620997
273 2 0.127937 0.861963 0.50687
373 2 0.039642 0.911212 0.538527
653 1 0.183544 0.95726 0.51098
673 1 0.143145 0.847359 0.507279
893 1 0.120626 0.840287 0.568271
993 1 0.0419408 0.810845 0.577343
1423 1 0.183424 0.926188 0.568805
1168 1 0.215413 0.832734 0.571132
1403 1 0.233926 0.997312 0.574457
298 2 0.30717 0.899796 0.506013
698 1 0.39339 0.841933 0.509998
918 1 0.313387 0.847168 0.570833
678 1 0.414601 0.943089 0.508122
323 2 0.552875 0.901329 0.50396
943 1 0.563478 0.847317 0.570777
1193 1 0.434115 0.839248 0.570582
1448 1 0.472352 0.931257 0.570891
703 1 0.660798 0.944552 0.508022
723 1 0.64367 0.842098 0.509569
1218 1 0.6846 0.838533 0.570319
1473 1 0.712942 0.932517 0.568763
348 2 0.777419 0.896243 0.505861
968 1 0.784838 0.844498 0.571085
628 1 0.954173 0.927648 0.503618
648 1 0.922271 0.853301 0.521772
728 1 0.848391 0.962326 0.512036
748 1 0.821012 0.853062 0.504829
1143 1 0.958994 0.83758 0.562298
1243 1 0.876213 0.822367 0.579838
1398 1 0.963656 0.925277 0.572364
1498 1 0.868403 0.9156 0.572603
128 2 0.143402 0.00790996 0.631908
534 1 0.156628 0.149285 0.632727
1254 1 0.164768 0.113486 0.691868
1274 1 0.0709893 0.0284332 0.686596
1354 1 0.0760307 0.119605 0.700463
1374 1 0.156947 0.0245079 0.708575
4 2 0.0274085 0.15105 0.641083
24 2 0.00749975 0.0571758 0.649516
379 2 0.0146678 0.151989 0.746423
399 2 0.00776061 0.0483416 0.724571
29 2 0.21996 0.148364 0.6263
49 2 0.250978 0.0467721 0.654339
424 2 0.255871 0.0422966 0.731986
559 1 0.396999 0.147005 0.633614
784 1 0.256519 0.197231 0.694502
1279 1 0.328211 0.114649 0.696404
1299 1 0.388256 0.0435634 0.692457
54 2 0.464124 0.143057 0.628535