ITEM: TIMESTEP
0
ITEM: NUMBER OF ATOMS
264
ITEM: BOX BOUNDS pp pp pp
0.0000000000000000e+00 9.5999999999999996e+00
0.0000000000000000e+00 9.5999999999999996e+00
0.0000000000000000e+00 3.1199999999999999e+01
ITEM: ATOMS id type xs ys zs
1 1 0.104936 0.298374 0.0403578
69 2 0.295587 0.42881 0.0111751
71 2 0.456163 0.071925 0.022592
168 2 0.28147 0.219208 0.0867915
185 1 0.189224 0.0294794 0.0229808
203 1 0.08875 0.292927 0.0407999
235 1 0.0926968 0.303847 0.0394745
237 1 0.497427 0.319207 0.0485877
241 1 0.496725 0.320878 0.0482738
193 1 0.0985374 0.303139 0.0405869
25 1 0.502471 0.318059 0.0495823
35 2 0.934343 0.131641 0.0499671
66 2 0.731924 0.379845 0.0848586
131 1 0.970373 0.302542 0.122109
170 2 0.685606 0.0453117 0.0892603
189 1 0.712488 0.0212943 0.013507
195 1 0.687555 0.197051 0.0224088
245 1 0.699305 0.206428 0.0229108
3 1 0.275773 0.708873 0.0456909
36 2 0.308066 0.906144 0.103297
72 2 0.0164865 0.830159 0.0635864
166 2 0.418473 0.53817 0.0923195
182 2 0.0617504 0.534933 0.0605232
191 1 0.280797 0.75729 0.0411429
201 1 0.361726 0.689538 0.0235657
239 1 0.24603 0.69697 0.0308999
199 1 0.381121 0.687302 0.0252807
5 1 0.810561 0.634282 0.0643498
34 2 0.578568 0.786032 0.0643322
127 1 0.799891 0.799503 0.117943
187 1 0.811653 0.639962 0.0512706
197 1 0.809157 0.620408 0.0483346
243 1 0.806755 0.656558 0.0481596
68 2 0.615022 0.502803 0.00429145
119 1 0.0249877 0.312543 0.130159
141 1 0.486802 0.072537 0.140698
145 1 0.429356 0.349777 0.151019
28 1 0.455592 0.32759 0.14239
80 2 0.198692 0.471502 0.188905
83 2 0.499122 0.231523 0.218207
173 2 0.227232 0.175848 0.174633
213 1 0.123294 0.286256 0.241841
247 1 0.426258 0.488255 0.22311
211 1 0.107458 0.270161 0.248831
33 2 0.989682 0.0255668 0.132957
105 1 0.988296 0.293157 0.143701
143 1 0.500577 0.296752 0.134285
8 1 0.99579 0.298924 0.149663
47 2 0.960963 0.0776513 0.227539
77 2 0.902482 0.400934 0.217848
78 2 0.643225 0.493773 0.179836
175 2 0.747201 0.205691 0.162178
205 1 0.723471 0.112455 0.237873
251 1 0.752111 0.222473 0.247926
107 1 0.198104 0.665353 0.132531
121 1 0.192445 0.667964 0.131806
129 1 0.200777 0.640243 0.128776
45 2 0.153037 0.85098 0.187457
10 1 0.189225 0.665461 0.13833
48 2 0.392607 0.965744 0.220148
171 2 0.439171 0.704622 0.168082
214 1 0.367013 0.589924 0.239122
250 1 0.190048 0.674055 0.248478
210 1 0.395492 0.558679 0.234876
109 1 0.697146 0.710917 0.131944
117 1 0.683505 0.663207 0.127179
84 2 0.914209 0.733857 0.205474
183 2 0.932406 0.573276 0.134216
12 1 0.707423 0.701034 0.140285
46 2 0.679282 0.913868 0.182015
207 1 0.308953 0.156882 0.273343
248 1 0.0401482 0.438488 0.275849
249 1 0.27764 0.158185 0.264146
9 1 0.304515 0.153398 0.276038
79 2 0.272477 0.4311 0.287996
112 1 0.192033 0.0608303 0.368889
133 1 0.220557 0.311719 0.374142
172 2 0.0608595 0.220551 0.319217
184 2 0.44127 0.274882 0.341369
212 1 0.748757 0.224129 0.250195
81 2 0.608063 0.0841519 0.299242
11 1 0.762481 0.187652 0.370995
75 2 0.828446 0.405755 0.322818
76 2 0.599338 0.434707 0.276085
206 1 0.238592 0.712336 0.251227
41 2 0.132858 0.935763 0.285585
7 1 0.498811 0.579362 0.332679
27 1 0.0542974 0.509376 0.365449
44 2 0.390801 0.9428 0.323503
174 2 0.263963 0.67902 0.332213
208 1 0.780016 0.851417 0.259225
209 1 0.763057 0.620689 0.257814
252 1 0.761188 0.623005 0.254258
43 2 0.868631 0.996593 0.323588
134 1 0.586602 0.513887 0.356512
82 2 0.979383 0.676113 0.300505
42 2 0.5315 0.755441 0.261252
176 2 0.702659 0.754683 0.334143
125 1 0.25651 0.154909 0.37764
149 1 0.109487 0.470118 0.380601
16 1 0.312181 0.159632 0.440269
90 2 0.295741 0.407801 0.443394
153 2 0.0466462 0.19522 0.416962
215 1 0.322633 0.0865917 0.484874
224 1 0.100068 0.310327 0.487675
253 1 0.073972 0.352246 0.48157
256 1 0.359061 0.189339 0.48696
219 1 0.0938717 0.323244 0.486035
113 1 0.821082 0.187786 0.37501
123 1 0.788306 0.19233 0.375501
132 1 0.614 0.0473449 0.378643
93 2 0.565919 0.0810973 0.458234
177 2 0.578343 0.320842 0.413382
18 1 0.783075 0.183836 0.380764
87 2 0.859061 0.397937 0.423023
88 2 0.590253 0.490966 0.487952
124 1 0.466768 0.53192 0.376046
111 1 0.49015 0.727701 0.380427
147 1 0.0107979 0.825114 0.376246
53 2 0.132989 0.932983 0.456683
14 1 0.490102 0.583456 0.40427
30 1 0.0269148 0.54428 0.382902
56 2 0.380937 0.944146 0.40809
94 2 0.00967446 0.63971 0.456036
155 2 0.252751 0.672672 0.417259
223 1 0.330887 0.61732 0.497782
222 1 0.340522 0.612836 0.498792
148 1 0.954573 0.597621 0.378469
55 2 0.825603 0.96218 0.422158
54 2 0.508074 0.792945 0.478465
157 2 0.723436 0.66709 0.416917
216 1 0.761328 0.758237 0.494262
257 1 0.766435 0.693571 0.498962
254 1 0.419603 0.320139 0.512009
29 1 0.427395 0.364727 0.603861
89 2 0.21637 0.449055 0.545488
136 1 0.0410481 0.32526 0.601728
152 1 0.399809 0.413411 0.616538
156 2 0.19577 0.161371 0.547297
217 1 0.723179 0.00233778 0.508919
220 1 0.724781 0.254379 0.506014
258 1 0.70401 0.248315 0.502076
13 1 0.989551 0.301566 0.588621
91 2 0.517739 0.132538 0.552314
150 1 0.529408 0.0350399 0.623808
51 2 0.941168 0.125814 0.503098
85 2 0.888232 0.457469 0.523646
86 2 0.664816 0.402694 0.578738
140 1 0.917584 0.329886 0.598618
158 2 0.809495 0.0887548 0.582624
218 1 0.21747 0.711089 0.502555
255 1 0.196064 0.689905 0.514127
49 2 0.0671551 0.949977 0.607176
15 1 0.216099 0.69264 0.518504
52 2 0.317545 0.893455 0.553516
139 1 0.263263 0.522874 0.621826
154 2 0.449917 0.627398 0.568841
178 2 0.0446931 0.627891 0.58947
221 1 0.739883 0.693666 0.503365
92 2 0.970008 0.8334 0.529053
17 1 0.767266 0.65895 0.622361
50 2 0.650275 0.830776 0.565733
116 1 0.709655 0.640536 0.62028
138 1 0.855584 0.801075 0.610423
114 1 0.00224215 0.195393 0.634159
20 1 0.0144926 0.218817 0.66279
32 1 0.487121 0.337028 0.637239
100 2 0.216967 0.435078 0.694172
103 2 0.472104 0.238345 0.710207
161 2 0.265255 0.196281 0.636087
233 1 0.139614 0.221123 0.734062
261 1 0.267367 0.154739 0.746436
231 1 0.123811 0.205557 0.731454
151 1 0.523205 0.255391 0.629511
63 2 0.904005 0.039817 0.732097
97 2 0.903532 0.355459 0.732907
98 2 0.651995 0.474716 0.678828
163 2 0.755776 0.195765 0.659719
225 1 0.653725 0.0628509 0.723924
232 1 0.709341 0.175756 0.742505
263 1 0.701253 0.216354 0.729969
179 2 0.9497 0.478393 0.656778
115 1 0.256104 0.770977 0.62562
137 1 0.209629 0.744886 0.642702
61 2 0.134965 0.986057 0.690529
259 1 0.433347 0.517203 0.733353
22 1 0.203148 0.697854 0.696677
64 2 0.402307 0.93874 0.684987
159 2 0.448556 0.651285 0.662316
226 1 0.226773 0.745948 0.724253
234 1 0.38994 0.551872 0.742381
262 1 0.169516 0.67307 0.727918
230 1 0.409108 0.542392 0.736064
135 1 0.747742 0.672781 0.626462
104 2 0.944965 0.750432 0.685298
24 1 0.756466 0.655499 0.631236
62 2 0.689619 0.884449 0.665377
228 1 0.774639 0.817552 0.74877
229 1 0.777389 0.626313 0.747542
264 1 0.758039 0.626785 0.742613
58 2 0.52054 0.778408 0.749991
227 1 0.297691 0.105744 0.753273
260 1 0.0863133 0.485636 0.76946
21 1 0.329449 0.129445 0.759796
99 2 0.304465 0.362408 0.789629
108 1 0.231077 0.176362 0.873151
122 1 0.2493 0.158254 0.870646
128 1 0.237344 0.175272 0.867869
146 1 0.0977125 0.481496 0.858158
160 2 0.0560998 0.217044 0.809818
180 2 0.482947 0.271625 0.851897
101 2 0.585407 0.0797986 0.794605
23 1 0.755795 0.226672 0.852787
95 2 0.867022 0.453957 0.821156
96 2 0.618102 0.419424 0.776208
118 1 0.739517 0.264725 0.859741
57 2 0.152568 0.937383 0.77954
120 1 0.410153 0.522826 0.866943
31 1 0.10571 0.506421 0.846211
60 2 0.36904 0.958584 0.833683
162 2 0.28915 0.658982 0.805221
59 2 0.856752 0.995876 0.825447
130 1 0.569127 0.527524 0.850861
144 1 0.960992 0.664287 0.863201
19 1 0.518726 0.546918 0.84264
102 2 0.98765 0.713627 0.782719
106 1 0.533186 0.536938 0.851466
142 1 0.947906 0.688785 0.862395
164 2 0.697681 0.733629 0.822052
4 1 0.182183 0.0975631 0.948667
70 2 0.253404 0.375993 0.918329
73 2 0.429992 0.0621958 0.925377
186 1 0.180594 0.0549872 0.948388
204 1 0.119903 0.216935 0.972353
242 1 0.274111 0.199604 0.978117
194 1 0.122455 0.216582 0.972749
65 2 0.909112 0.376835 0.991034
110 1 0.758929 0.0978048 0.892587
126 1 0.64709 0.0425773 0.875766
165 2 0.973284 0.267118 0.900429
181 2 0.552648 0.36164 0.92936
6 1 0.702652 0.186689 0.950562
39 2 0.923332 0.0498597 0.963217
190 1 0.666046 0.139084 0.952368
196 1 0.749319 0.23281 0.943203
246 1 0.749121 0.224786 0.955097
37 2 0.0901675 0.947955 0.881497
236 1 0.0503586 0.519424 0.937385
238 1 0.413735 0.588271 0.952894
2 1 0.417201 0.590098 0.948414
26 1 0.025288 0.522541 0.93485
40 2 0.488869 0.762236 0.887533
74 2 0.0508248 0.765145 0.976419
167 2 0.201903 0.690597 0.900727
192 1 0.292918 0.862567 0.973246
202 1 0.381119 0.594376 0.955246
240 1 0.106391 0.532452 0.961302
200 1 0.419113 0.587731 0.958148
67 2 0.770198 0.518894 0.905359
38 2 0.55358 0.810004 0.971705
169 2 0.794782 0.840771 0.909594
188 1 0.801256 0.813853 0.991136
198 1 0.820975 0.645542 0.974014
244 1 0.789189 0.672105 0.970585
ITEM: TIMESTEP
100
ITEM: NUMBER OF ATOMS
264
ITEM: BOX BOUNDS pp pp pp
0.0000000000000000e+00 9.5999999999999996e+00
0.0000000000000000e+00 9.5999999999999996e+00
0.0000000000000000e+00 3.1199999999999999e+01
ITEM: ATOMS id type xs ys zs
1 1 0.110387 0.287503 0.0230447
69 2 0.301168 0.433867 0.0022837
71 2 0.449132 0.0797985 0.020103
168 2 0.295621 0.226704 0.088261
185 1 0.270138 0.973857 0.0481969
203 1 0.094371 0.292332 0.0290479
235 1 0.108686 0.288321 0.0288333
237 1 0.488627 0.299334 0.0538082
241 1 0.559427 0.262499 0.0598241
193 1 0.0983 0.290117 0.0297965
25 1 0.472141 0.342758 0.0341792
35 2 0.905698 0.1889 0.06571
66 2 0.721603 0.390852 0.0883158
131 1 0.995315 0.319923 0.132632
170 2 0.646318 0.0449986 0.0937531
189 1 0.710574 0.0152601 0.0167327
195 1 0.640293 0.207774 0.0365912
245 1 0.703915 0.229936 0.021558
3 1 0.296565 0.715255 0.0429003
36 2 0.314129 0.918064 0.106525
72 2 0.0580805 0.803068 0.0649804
166 2 0.391554 0.51739 0.0929536
182 2 0.0900418 0.516621 0.0604125
191 1 0.298336 0.749683 0.0386841
201 1 0.353299 0.704924 0.0230474
239 1 0.271646 0.699161 0.0302192
199 1 0.356085 0.688021 0.0267075
5 1 0.867119 0.556087 0.0310411
34 2 0.526469 0.830806 0.0586455
127 1 0.710228 0.711902 0.189857
187 1 0.868028 0.590885 0.0350894
197 1 0.859365 0.578459 0.0414373
243 1 0.854996 0.573815 0.0401294
68 2 0.621881 0.496365 0.000665916
119 1 0.025349 0.313715 0.134221
141 1 0.47736 0.0931558 0.150051
145 1 0.423891 0.351293 0.152401
28 1 0.448128 0.339959 0.147364
80 2 0.197017 0.48012 0.186717
83 2 0.466543 0.244166 0.220252
173 2 0.216984 0.173337 0.173894
213 1 0.10218 0.28327 0.238985
247 1 0.422713 0.532993 0.225972
211 1 0.117589 0.308958 0.240426
33 2 0.979459 0.0199658 0.134939
105 1 0.00137655 0.305183 0.146966
143 1 0.521167 0.298214 0.129985
8 1 0.997938 0.31207 0.149673
47 2 0.960538 0.0615032 0.227691
77 2 0.904038 0.411311 0.218264
78 2 0.632528 0.469583 0.185013
175 2 0.748805 0.214074 0.161227
205 1 0.712223 0.160711 0.232361
251 1 0.784994 0.234105 0.264747
107 1 0.201166 0.600844 0.148905
121 1 0.196404 0.679128 0.123543
129 1 0.202122 0.653551 0.124407
45 2 0.150717 0.83437 0.184556
10 1 0.195766 0.757986 0.10334
48 2 0.387523 0.963851 0.22059
171 2 0.430643 0.702555 0.164528
214 1 0.398838 0.560602 0.229731
250 1 0.207136 0.680518 0.249986
210 1 0.421101 0.529063 0.224586
109 1 0.683707 0.677234 0.171192
117 1 0.652759 0.71876 0.162433
84 2 0.947212 0.718405 0.216506
183 2 0.933846 0.577943 0.13273
12 1 0.643166 0.680157 0.171953
46 2 0.637403 0.96658 0.1912
207 1 0.310314 0.15157 0.276761
248 1 0.0358545 0.435054 0.279562
249 1 0.270701 0.162968 0.267375
9 1 0.304392 0.132405 0.278342
79 2 0.278365 0.433604 0.28452
112 1 0.163334 0.00994628 0.365851
133 1 0.22438 0.315916 0.371864
172 2 0.0615609 0.221174 0.316063
184 2 0.444943 0.274629 0.340339
212 1 0.738201 0.236635 0.238799
81 2 0.627636 0.0824076 0.298198
11 1 0.777365 0.180363 0.37308
75 2 0.825802 0.408572 0.328251
76 2 0.605659 0.436198 0.275443
206 1 0.248459 0.706297 0.248465
41 2 0.135799 0.923265 0.283261
7 1 0.504335 0.550975 0.339273
27 1 0.059161 0.504571 0.369474
44 2 0.400533 0.941776 0.323601
174 2 0.266046 0.672081 0.332489
208 1 0.781666 0.868697 0.263328
209 1 0.779649 0.61311 0.26105
252 1 0.746165 0.624141 0.258991
43 2 0.885217 0.986842 0.330243
134 1 0.570294 0.519511 0.351265
82 2 0.980499 0.671901 0.302862
42 2 0.525014 0.747336 0.260648
176 2 0.696974 0.75513 0.335288
125 1 0.245269 0.143291 0.369676
149 1 0.112007 0.475551 0.380354
16 1 0.306478 0.139359 0.45831
90 2 0.298011 0.39639 0.440682
153 2 0.0497014 0.192456 0.413905
215 1 0.348786 0.0713277 0.487034
224 1 0.0840539 0.336954 0.483925
253 1 0.0599907 0.353748 0.481287
256 1 0.357428 0.185359 0.485301
219 1 0.0752261 0.347392 0.480671
113 1 0.815259 0.188095 0.375174
123 1 0.791997 0.192084 0.375199
132 1 0.616335 0.0608836 0.378998
93 2 0.58222 0.09153 0.459413
177 2 0.586939 0.324238 0.411036
18 1 0.792983 0.185094 0.379231
87 2 0.865001 0.395268 0.426032
88 2 0.588501 0.495916 0.488701
124 1 0.454116 0.533162 0.377057
111 1 0.484786 0.697904 0.383099
147 1 0.0423331 0.820012 0.378489
53 2 0.141739 0.936416 0.459899
14 1 0.486387 0.567985 0.405475
30 1 -0.00255944 0.558055 0.378778
56 2 0.389168 0.951107 0.407071
94 2 0.0120103 0.632371 0.458781
155 2 0.253863 0.674859 0.418306
223 1 0.29831 0.650798 0.500773
222 1 0.34197 0.606936 0.495674
148 1 0.939976 0.607239 0.383205
55 2 0.82653 0.952371 0.422623
54 2 0.513312 0.797716 0.47852
157 2 0.717612 0.65935 0.416789
216 1 0.759256 0.730531 0.497054
257 1 0.753452 0.704631 0.498842
254 1 0.408417 0.311531 0.509275
29 1 0.431356 0.386443 0.608559
89 2 0.214109 0.446589 0.5451
136 1 0.0285411 0.317586 0.596596
152 1 0.407877 0.41605 0.616859
156 2 0.178294 0.156753 0.540407
217 1 0.726847 0.961765 0.507173
220 1 0.707589 0.277672 0.502013
258 1 0.688606 0.237236 0.515451
13 1 0.972496 0.293867 0.589213
91 2 0.504957 0.136446 0.555671
150 1 0.537398 0.0374561 0.624671
51 2 0.922189 0.13583 0.499146
85 2 0.883437 0.467671 0.52545
86 2 0.677214 0.401694 0.581885
140 1 0.953925 0.320652 0.592057
158 2 0.814343 0.0857212 0.581353
218 1 0.23061 0.711202 0.502877
255 1 0.192185 0.697933 0.517604
49 2 0.062653 0.952798 0.606733
15 1 0.221804 0.69313 0.515258
52 2 0.316378 0.894896 0.555155
139 1 0.255825 0.511572 0.623049
154 2 0.447742 0.625059 0.566389
178 2 0.0523442 0.634647 0.588845
221 1 0.742872 0.693109 0.500744
92 2 0.965726 0.836709 0.527557
17 1 0.774581 0.655695 0.622515
50 2 0.644455 0.823425 0.568145
116 1 0.739749 0.657313 0.622589
138 1 0.856348 0.795418 0.609583
114 1 0.992241 0.201937 0.638028
20 1 0.0165226 0.203892 0.661503
32 1 0.499622 0.325117 0.635068
100 2 0.213244 0.447977 0.697103
103 2 0.429268 0.259597 0.702203
161 2 0.25743 0.204363 0.631042
233 1 0.150747 0.224983 0.732329
261 1 0.248616 0.142963 0.743581
231 1 0.122093 0.193869 0.735293
151 1 0.523773 0.276789 0.629888
63 2 0.900226 0.0201659 0.729789
97 2 0.927223 0.376021 0.730513
98 2 0.651042 0.482144 0.679992
163 2 0.748608 0.198671 0.659661
225 1 0.615514 0.0727846 0.718763
232 1 0.74447 0.209957 0.765104
263 1 0.677948 0.17573 0.733199
179 2 0.95015 0.466335 0.652232
115 1 0.248829 0.777117 0.62927
137 1 0.193441 0.767411 0.642801
61 2 0.135998 0.983531 0.689237
259 1 0.416659 0.527785 0.739224
22 1 0.210594 0.717356 0.709349
64 2 0.403697 0.944948 0.683726
159 2 0.438733 0.648517 0.661561
226 1 0.221906 0.748187 0.720299
234 1 0.429013 0.54375 0.731768
262 1 0.189834 0.707755 0.721719
230 1 0.415748 0.528064 0.743299
135 1 0.780961 0.692479 0.621883
104 2 0.948404 0.739742 0.683969
24 1 0.763887 0.653439 0.628218
62 2 0.691654 0.881967 0.665466
228 1 0.772591 0.810834 0.747339
229 1 0.775241 0.628015 0.74492
264 1 0.766717 0.62956 0.74244
58 2 0.523267 0.778093 0.748261
227 1 0.320243 0.0863489 0.75006
260 1 0.0966607 0.480032 0.775953
21 1 0.335811 0.110964 0.760058
99 2 0.313291 0.344514 0.788101
108 1 0.24565 0.162221 0.871306
122 1 0.23527 0.171515 0.87245
128 1 0.240294 0.168167 0.871543
146 1 0.0997786 0.471078 0.849958
160 2 0.0574134 0.217804 0.811206
180 2 0.492701 0.267316 0.852712
101 2 0.590535 0.0712143 0.794609
23 1 0.757217 0.230669 0.847803
95 2 0.888009 0.438383 0.824972
96 2 0.617355 0.405333 0.772107
118 1 0.75326 0.260603 0.860595
57 2 0.150826 0.940511 0.780853
120 1 0.787968 0.573805 0.793169
31 1 0.100025 0.493002 0.842281
60 2 0.369406 0.957727 0.836105
162 2 0.267465 0.677509 0.782086
59 2 0.859685 0.998932 0.827819
130 1 0.585452 0.493637 0.848998
144 1 0.944187 0.679592 0.863856
19 1 0.608793 0.506099 0.843873
102 2 0.986512 0.711311 0.779698
106 1 0.610277 0.518875 0.846352
142 1 0.937519 0.710985 0.85712
164 2 0.699983 0.771027 0.822371
4 1 0.161803 0.0984416 0.952761
70 2 0.344116 0.651859 0.846957
73 2 0.417596 0.068644 0.926653
186 1 0.167489 0.0788557 0.954777
204 1 -0.0362662 0.942269 0.032401
242 1 0.267107 0.199788 0.97492
194 1 0.546254 0.501041 0.0559544
65 2 0.913384 0.383546 0.990208
110 1 0.7651 0.101905 0.893271
126 1 0.633989 0.0231093 0.875786
165 2 0.994099 0.269973 0.902254
181 2 0.529633 0.354284 0.92997
6 1 0.706531 0.189768 0.9456
39 2 0.902898 0.0535096 0.962694
190 1 0.661773 0.118141 0.948068
196 1 0.766592 0.25069 0.93823
246 1 0.744312 0.240941 0.949473
37 2 0.0898342 0.954774 0.884304
236 1 0.0516057 0.514971 0.941897
238 1 0.424546 0.610992 0.954583
2 1 0.415994 0.610866 0.960203
26 1 0.013803 0.507829 0.932469
40 2 0.509985 0.774559 0.89315
74 2 0.0583951 0.761242 0.976205
167 2 0.169998 0.707325 0.908867
192 1 0.293421 0.881967 0.974057
202 1 0.412525 0.591881 0.954094
240 1 0.104725 0.501101 0.951519
200 1 0.428237 0.592712 0.955756
67 2 0.77197 0.519032 0.908234
38 2 0.565184 0.81741 0.974052
169 2 0.796394 0.842163 0.913148
188 1 0.815479 0.804925 0.999674
198 1 0.822929 0.660663 0.974615
244 1 0.799488 0.673414 0.973383
ITEM: TIMESTEP
200
ITEM: NUMBER OF ATOMS
264
ITEM: BOX BOUNDS pp pp pp
0.0000000000000000e+00 9.5999999999999996e+00
0.0000000000000000e+00 9.5999999999999996e+00
0.0000000000000000e+00 3.1199999999999999e+01
ITEM: ATOMS id type xs ys zs
1 1 0.14828 0.250163 0.0159512
69 2 0.277211 0.462202 0.986654
71 2 0.430331 0.0733457 0.0112218
168 2 0.297233 0.206216 0.092044
185 1 0.165989 0.978758 0.0393241
203 1 0.12882 0.253554 0.00794317
235 1 0.127071 0.205622 0.0121144
237 1 0.542189 0.301641 0.0638364
241 1 0.559856 0.261799 0.0563717
193 1 0.104517 0.244721 0.0250952
25 1 0.473472 0.371447 0.0379822
35 2 0.928485 0.164481 0.0574676
66 2 0.752374 0.392527 0.0873762
131 1 0.033319 0.341904 0.145905
170 2 0.629482 0.0600045 0.102763
189 1 0.699461 0.102497 0.019042
195 1 0.644779 0.196835 0.042984
245 1 0.682284 0.237665 0.0160837
3 1 0.274064 0.709518 0.0389417
36 2 0.355147 0.96653 0.124033
72 2 0.0117416 0.798034 0.0647314
166 2 0.366159 0.49615 0.0962524
182 2 0.096753 0.437006 0.0630056
191 1 0.270906 0.747021 0.0276895
201 1 0.339628 0.678287 0.0220786
239 1 0.243427 0.665214 0.0309297
199 1 0.321424 0.659462 0.0337672
5 1 0.857643 0.59429 0.0477261
34 2 0.513578 0.776608 0.0679278
127 1 0.716052 0.729169 0.186997
187 1 0.884748 0.599111 0.0418195
197 1 0.81991 0.615656 0.0560808
243 1 0.888756 0.572452 0.0499594
68 2 0.658383 0.491548 0.9995
119 1 0.0151803 0.31304 0.133746
141 1 0.484944 0.207016 0.159426
145 1 0.406849 0.318245 0.152782
28 1 0.408933 0.353933 0.14737
80 2 0.199986 0.476764 0.188504
83 2 0.448511 0.244867 0.23036
173 2 0.173997 0.15172 0.178817
213 1 0.105903 0.294982 0.247561
247 1 0.426436 0.504498 0.228872
211 1 0.100166 0.268765 0.23795
33 2 0.941721 0.982586 0.131224
105 1 1.00539 0.34583 0.143728
143 1 0.518507 0.316693 0.123647
8 1 0.985055 0.356995 0.138923
47 2 0.925849 0.0567978 0.233169
77 2 0.90436 0.416424 0.214923
78 2 0.636528 0.457348 0.177569
175 2 0.783166 0.204721 0.159075
205 1 0.725406 0.249592 0.2388
251 1 0.819334 0.252343 0.271882
107 1 0.157925 0.695797 0.109484
121 1 0.16854 0.680722 0.110195
129 1 0.175609 0.680306 0.123193
45 2 0.13363 0.838659 0.178074
10 1 0.232693 0.745782 0.10976
48 2 0.358777 0.953639 0.227063
171 2 0.418385 0.691438 0.163562
214 1 0.435956 0.4934 0.222192
250 1 0.253405 0.705058 0.247374
210 1 0.4137 0.531243 0.22777
109 1 0.721534 0.729176 0.208575
117 1 0.688197 0.777011 0.129942
84 2 0.958656 0.700426 0.223339
183 2 0.897649 0.625609 0.134874
12 1 0.736852 0.743863 0.188976
46 2 0.661987 0.975925 0.204669
207 1 0.2791 0.1147 0.278892
248 1 0.0178288 0.447227 0.2804
249 1 0.259023 0.146865 0.266642
9 1 0.287872 0.173423 0.284116
79 2 0.268743 0.433661 0.288587
112 1 0.174168 0.986233 0.36538
133 1 0.228874 0.309024 0.365435
172 2 0.0481404 0.2153 0.315811
184 2 0.454781 0.256633 0.338598
212 1 0.757525 0.252016 0.239548
81 2 0.661067 0.0674125 0.293802
11 1 0.790311 0.175375 0.373776
75 2 0.818745 0.420337 0.339269
76 2 0.604813 0.426152 0.282333
206 1 0.262438 0.677748 0.2457
41 2 0.13543 0.913476 0.283229
7 1 0.522151 0.539344 0.355508
27 1 0.0671976 0.488776 0.373876
44 2 0.414051 0.945678 0.324679
174 2 0.285629 0.666548 0.333703
208 1 0.793151 0.841411 0.265321
209 1 0.777971 0.685577 0.27006
252 1 0.77305 0.587685 0.265854
43 2 0.907709 0.968658 0.337313
134 1 0.537333 0.535379 0.358039
82 2 0.989879 0.672868 0.316455
42 2 0.531859 0.728239 0.254999
176 2 0.682326 0.758295 0.33529
125 1 0.249072 0.131032 0.363042
149 1 0.104936 0.465718 0.382006
16 1 0.350162 0.118771 0.477392
90 2 0.299845 0.38234 0.435449
153 2 0.0609231 0.183696 0.409635
215 1 0.35978 0.0493831 0.491906
224 1 0.0682885 0.354978 0.482198
253 1 0.0558517 0.36845 0.478014
256 1 0.357371 0.173799 0.483018
219 1 0.0578524 0.339416 0.477421
113 1 0.82263 0.168639 0.379268
123 1 0.803521 0.176257 0.371826
132 1 0.622383 0.064622 0.379321
93 2 0.597379 0.109064 0.461739
177 2 0.598625 0.330584 0.408689
18 1 0.801929 0.192304 0.378113
87 2 0.866598 0.385118 0.431776
88 2 0.578989 0.4888 0.490691
124 1 0.449155 0.52255 0.376697
111 1 0.484417 0.706583 0.383801
147 1 0.0296229 0.787136 0.389545
53 2 0.145265 0.932263 0.460451
14 1 0.476358 0.551843 0.400956
30 1 0.964874 0.591701 0.388687
56 2 0.392928 0.975458 0.411132
94 2 0.0186879 0.628815 0.462065
155 2 0.259631 0.682217 0.420644
223 1 0.268654 0.691016 0.505324
222 1 0.327416 0.605739 0.496457
148 1 0.923646 0.611753 0.387671
55 2 0.825 0.937014 0.424189
54 2 0.509128 0.80237 0.476763
157 2 0.702483 0.646432 0.419377
216 1 0.760042 0.706252 0.50431
257 1 0.748655 0.690405 0.500005
254 1 0.41166 0.286943 0.499459
29 1 0.4044 0.392861 0.611924
89 2 0.211917 0.438553 0.540588
136 1 0.00554598 0.289282 0.578433
152 1 0.377866 0.399706 0.603476
156 2 0.158175 0.149383 0.530353
217 1 0.718698 0.948332 0.507835
220 1 0.674107 0.26964 0.51706
258 1 0.681453 0.261516 0.513239
13 1 0.994694 0.275666 0.582352
91 2 0.490339 0.143903 0.553973
150 1 0.544281 0.044193 0.626002
51 2 0.899856 0.14587 0.493728
85 2 0.881434 0.475994 0.528168
86 2 0.68292 0.404049 0.578368
140 1 0.990507 0.28738 0.582981
158 2 0.795721 0.0884556 0.579948
218 1 0.239101 0.707853 0.504634
255 1 0.210707 0.705138 0.516381
49 2 0.0495579 0.967594 0.605108
15 1 0.21796 0.694618 0.515995
52 2 0.314367 0.894954 0.559888
139 1 0.247178 0.482069 0.621873
154 2 0.442151 0.615756 0.563754
178 2 0.0699624 0.650611 0.585115
221 1 0.740932 0.701039 0.494198
92 2 0.957392 0.843637 0.5247
17 1 0.78564 0.647241 0.6178
50 2 0.638243 0.816784 0.56901
116 1 0.754094 0.658802 0.626357
138 1 0.860686 0.796687 0.609335
114 1 0.988444 0.193827 0.642622
20 1 -0.00575785 0.193085 0.646731
32 1 0.477263 0.227224 0.612206
100 2 0.185755 0.472299 0.699539
103 2 0.420922 0.254316 0.698059
161 2 0.225592 0.212656 0.620058
233 1 0.172438 0.232221 0.726881
261 1 0.231843 0.16006 0.743246
231 1 0.159486 0.212142 0.735006
151 1 0.45329 0.229892 0.609571
63 2 0.90996 0.0857631 0.712992
97 2 0.909488 0.386381 0.731533
98 2 0.622986 0.464727 0.665965
163 2 0.730106 0.190274 0.658263
225 1 0.616109 0.0822848 0.719695
232 1 0.831337 0.203822 0.78021
263 1 0.709287 0.211151 0.741711
179 2 0.942436 0.445672 0.642129
115 1 0.229472 0.791232 0.632769
137 1 0.19661 0.788913 0.641644
61 2 0.135031 0.0149486 0.686369
259 1 0.438865 0.520554 0.731071
22 1 0.211636 0.741576 0.68084
64 2 0.399084 0.951117 0.681246
159 2 0.430453 0.665095 0.659806
226 1 0.212521 0.773521 0.669181
234 1 0.458755 0.498544 0.724717
262 1 0.198004 0.748104 0.676553
230 1 0.435409 0.523591 0.72676
135 1 0.82717 0.705098 0.61444
104 2 0.959414 0.72682 0.682591
24 1 0.770611 0.632832 0.628584
62 2 0.69624 0.871502 0.666661
228 1 0.812011 0.777228 0.745453
229 1 0.718624 0.903942 0.780462
264 1 0.807339 0.727769 0.761477
58 2 0.547485 0.767988 0.747059
227 1 0.354603 0.0924714 0.761294
260 1 0.0993984 0.449537 0.781492
21 1 0.359013 0.0606343 0.742551
99 2 0.331158 0.346093 0.787545
108 1 0.250718 0.195121 0.870617
122 1 0.232898 0.190185 0.872801
128 1 0.259822 0.20196 0.866046
146 1 0.18935 0.469937 0.850576
160 2 0.0789721 0.200228 0.807982
180 2 0.504017 0.273283 0.853716
101 2 0.574738 0.0737351 0.791625
23 1 0.743101 0.209941 0.842064
95 2 0.906739 0.422462 0.834599
96 2 0.631089 0.399315 0.771883
118 1 0.753405 0.228139 0.869127
57 2 0.145095 0.946942 0.782329
120 1 0.748261 0.587999 0.800331
31 1 0.182099 0.495828 0.843134
60 2 0.360056 0.944142 0.837218
162 2 0.270258 0.661048 0.767087
59 2 0.87986 0.0163831 0.835095
130 1 0.605775 0.523357 0.840628
144 1 0.948218 0.685895 0.861864
19 1 0.613126 0.494121 0.844779
102 2 -0.00552608 0.683567 0.789239
106 1 0.630402 0.541728 0.838013
142 1 0.958913 0.760032 0.859099
164 2 0.678495 0.76718 0.830874
4 1 0.167082 0.0742695 0.956795
70 2 0.395379 0.614077 0.845941
73 2 0.402327 0.0394083 0.918832
186 1 0.149205 0.0908943 0.952799
204 1 0.76835 0.880579 0.0683072
242 1 0.268417 0.195083 0.955816
194 1 0.585856 0.566189 0.0779724
65 2 0.90481 0.392197 0.987891
110 1 0.790257 0.112527 0.899302
126 1 0.636605 0.0261055 0.877075
165 2 0.0309474 0.273778 0.909202
181 2 0.475438 0.338217 0.933013
6 1 0.700755 0.225076 0.945552
39 2 0.89832 0.0689743 0.974591
190 1 0.627799 0.120965 0.945099
196 1 0.755579 0.25984 0.932895
246 1 0.722577 0.27148 0.940913
37 2 0.101902 0.96432 0.893472
236 1 0.0830919 0.467063 0.94471
238 1 0.452712 0.614957 0.951608
2 1 0.424289 0.623315 0.94598
26 1 0.0266582 0.502167 0.929823
40 2 0.533953 0.780059 0.902146
74 2 0.0632536 0.768835 0.980843
167 2 0.172907 0.673466 0.899054
192 1 0.284808 0.878374 0.968367
202 1 0.401832 0.597781 0.933836
240 1 0.0993024 0.479816 0.942145
200 1 0.339072 0.784726 0.962074
67 2 0.783483 0.5196 0.904133
38 2 0.58713 0.82383 0.985555
169 2 0.828918 0.856505 0.918171
188 1 0.820018 0.827056 0.000850959
198 1 0.839373 0.711272 0.980329
244 1 0.798167 0.688199 0.97999
ITEM: TIMESTEP
300
ITEM: NUMBER OF ATOMS
264
ITEM: BOX BOUNDS pp pp pp
0.0000000000000000e+00 9.5999999999999996e+00
0.0000000000000000e+00 9.5999999999999996e+00
0.0000000000000000e+00 3.1199999999999999e+01
ITEM: ATOMS id type xs ys zs
1 1 0.140876 0.250387 0.0161325
69 2 0.247706 0.451025 0.989972
71 2 0.406132 0.0898921 0.0123295
168 2 0.270464 0.224568 0.08902
185 1 0.165443 0.0412145 0.0436274
203 1 0.126923 0.249424 0.0313548
235 1 0.11799 0.187915 0.0254023
237 1 0.497548 0.320017 0.0617703
241 1 0.561482 0.290705 0.0384462
193 1 0.118434 0.218554 0.0146542
25 1 0.459061 0.317681 0.0423284
35 2 0.934571 0.105068 0.0646843
66 2 0.78034 0.352711 0.0875828
131 1 0.00504063 0.330663 0.136698
170 2 0.601001 0.0733601 0.0911278
189 1 0.679883 0.102359 0.0177865
195 1 0.632987 0.227991 0.0257107
245 1 0.723385 0.207293 0.0162822
3 1 0.253715 0.678028 0.0361146
36 2 0.346711 0.958779 0.123758
72 2 0.035412 0.821439 0.0584247
166 2 0.364904 0.502592 0.0892519
182 2 0.084512 0.470795 0.0674082
191 1 0.262408 0.779605 0.0325921
201 1 0.314701 0.682735 0.0203843
239 1 0.232377 0.659606 0.0351538
199 1 0.273613 0.66517 0.0323461
5 1 0.845314 0.607911 0.0580843
34 2 0.483852 0.780863 0.067703
127 1 0.754259 0.752532 0.176106
187 1 0.830534 0.592319 0.050953
197 1 0.843552 0.621551 0.0573732
243 1 0.844889 0.602232 0.0501299
68 2 0.604347 0.52105 0.00520421
119 1 0.0242468 0.323424 0.132788
141 1 0.51724 0.251636 0.142615
145 1 0.392153 0.297588 0.15576
28 1 0.39109 0.332725 0.167042
80 2 0.198595 0.501842 0.173651
83 2 0.45514 0.222749 0.230095
173 2 0.168728 0.164105 0.177322
213 1 0.111529 0.311285 0.237679
247 1 0.412666 0.496057 0.226895
211 1 0.0886051 0.293329 0.246304
33 2 0.88524 0.940305 0.137486
105 1 -0.000141449 0.384254 0.141199
143 1 0.53673 0.296495 0.128807
8 1 1.01238 0.348215 0.144101
47 2 0.939489 0.0643158 0.238138
77 2 0.897728 0.428406 0.212398
78 2 0.62663 0.485272 0.17321
175 2 0.792338 0.206495 0.160853
205 1 0.714521 0.243645 0.231134
251 1 0.810011 0.278528 0.272376
107 1 0.205965 0.709336 0.124998
121 1 0.18362 0.679286 0.115273
129 1 0.164744 0.677566 0.114685
45 2 0.138267 0.851368 0.178866
10 1 0.213685 0.715653 0.110084
48 2 0.380046 0.95477 0.22546
171 2 0.435758 0.701025 0.165434
214 1 0.423105 0.488592 0.222621
250 1 0.25563 0.691186 0.243377
210 1 0.425425 0.511106 0.222776
109 1 0.731891 0.724988 0.181611
117 1 0.674994 0.789682 0.13794
84 2 0.979188 0.69231 0.231465
183 2 0.916912 0.621925 0.132052
12 1 0.748499 0.70227 0.185448
46 2 0.646354 0.975586 0.197112
207 1 0.264632 0.137527 0.282591
248 1 0.986017 0.436911 0.282834
249 1 0.236078 0.164174 0.271798
9 1 0.271357 0.145845 0.282307
79 2 0.257692 0.435874 0.286136
112 1 0.170648 0.932319 0.369658
133 1 0.234411 0.263284 0.359833
172 2 0.0256228 0.219195 0.319368
184 2 0.463766 0.242717 0.33627
212 1 0.733524 0.253945 0.237709
81 2 0.680169 0.0746522 0.293537
11 1 0.818073 0.168121 0.387915
75 2 0.81355 0.443801 0.343121
76 2 0.610259 0.433731 0.280453
206 1 0.263953 0.673803 0.242242
41 2 0.139922 0.906068 0.283877
7 1 0.509649 0.531967 0.361197
27 1 0.0776923 0.48233 0.380382
44 2 0.415482 0.950217 0.321149
174 2 0.30472 0.677648 0.330613
208 1 0.808604 0.821731 0.2749
209 1 0.780006 0.671673 0.278123
252 1 0.77772 0.644122 0.280848
43 2 0.916023 0.951077 0.346249
134 1 0.523384 0.556882 0.36909
82 2 1.00511 0.66294 0.324589
42 2 0.545225 0.714665 0.257002
176 2 0.674315 0.768225 0.34356
125 1 0.238323 0.12851 0.354758