ITEM: TIMESTEP
0
ITEM: NUMBER OF ATOMS
324
ITEM: BOX BOUNDS pp pp pp
-3.5537860000000001e+00 2.0946214000000001e+01
-3.5537860000000001e+00 2.0946214000000001e+01
-3.1162500000000000e+00 1.6783750000000001e+01
ITEM: ATOMS id type xs ys zs
163 2 0.230458 0.184545 0.156595
82 2 0.355356 0.230458 0.156595
172 2 0.480254 0.184545 0.156595
91 2 0.605152 0.230458 0.156595
100 2 0.854947 0.230458 0.156595
181 2 0.73005 0.184545 0.156595
1 2 0.184545 0.309443 0.156595
109 2 0.309443 0.355356 0.156595
10 2 0.434341 0.309443 0.156595
118 2 0.559239 0.355356 0.156595
19 2 0.684137 0.309443 0.156595
127 2 0.809035 0.355356 0.156595
4 2 0.184545 0.559239 0.156595
166 2 0.230458 0.434341 0.156595
85 2 0.355356 0.480254 0.156595
13 2 0.434341 0.559239 0.156595
175 2 0.480254 0.434341 0.156595
22 2 0.684137 0.559239 0.156595
94 2 0.605152 0.480254 0.156595
103 2 0.854947 0.480254 0.156595
184 2 0.73005 0.434341 0.156595
169 2 0.230458 0.684137 0.156595
112 2 0.309443 0.605152 0.156595
121 2 0.559239 0.605152 0.156595
178 2 0.480254 0.684137 0.156595
130 2 0.809035 0.605152 0.156595
187 2 0.73005 0.684137 0.156595
7 2 0.184545 0.809035 0.156595
88 2 0.355356 0.73005 0.156595
115 2 0.309443 0.854947 0.156595
16 2 0.434341 0.809035 0.156595
124 2 0.559239 0.854947 0.156595
25 2 0.684137 0.809035 0.156595
97 2 0.605152 0.73005 0.156595
106 2 0.854947 0.73005 0.156595
133 2 0.809035 0.854947 0.156595
136 2 0.184545 0.230458 0.28147
217 1 0.145052 0.145052 0.219033
244 1 0.26995 0.26995 0.343907
271 1 0.145052 0.145052 0.343907
298 1 0.26995 0.26995 0.219033
28 2 0.309443 0.184545 0.28147
226 1 0.394848 0.145052 0.219033
280 1 0.394848 0.145052 0.343907
37 2 0.559239 0.184545 0.28147
145 2 0.434341 0.230458 0.28147
253 1 0.519746 0.26995 0.343907
307 1 0.519746 0.26995 0.219033
154 2 0.684137 0.230458 0.28147
235 1 0.644644 0.145052 0.219033
289 1 0.644644 0.145052 0.343907
46 2 0.809035 0.184545 0.28147
262 1 0.769542 0.26995 0.343907
316 1 0.769542 0.26995 0.219033
55 2 0.230458 0.355356 0.28147
220 1 0.145052 0.394848 0.219033
274 1 0.145052 0.394848 0.343907
190 2 0.355356 0.309443 0.28147
229 1 0.394848 0.394848 0.219033
283 1 0.394848 0.394848 0.343907
64 2 0.480254 0.355356 0.28147
199 2 0.605152 0.309443 0.28147
238 1 0.644644 0.394848 0.219033
292 1 0.644644 0.394848 0.343907
73 2 0.73005 0.355356 0.28147
208 2 0.854947 0.309443 0.28147
139 2 0.184545 0.480254 0.28147
247 1 0.26995 0.519746 0.343907
301 1 0.26995 0.519746 0.219033
31 2 0.309443 0.434341 0.28147
193 2 0.355356 0.559239 0.28147
40 2 0.559239 0.434341 0.28147
148 2 0.434341 0.480254 0.28147
256 1 0.519746 0.519746 0.343907
310 1 0.519746 0.519746 0.219033
157 2 0.684137 0.480254 0.28147
202 2 0.605152 0.559239 0.28147
49 2 0.809035 0.434341 0.28147
211 2 0.854947 0.559239 0.28147
265 1 0.769542 0.519746 0.343907
319 1 0.769542 0.519746 0.219033
58 2 0.230458 0.605152 0.28147
223 1 0.145052 0.644644 0.219033
277 1 0.145052 0.644644 0.343907
34 2 0.309443 0.684137 0.28147
232 1 0.394848 0.644644 0.219033
286 1 0.394848 0.644644 0.343907
43 2 0.559239 0.684137 0.28147
67 2 0.480254 0.605152 0.28147
241 1 0.644644 0.644644 0.219033
295 1 0.644644 0.644644 0.343907
52 2 0.809035 0.684137 0.28147
76 2 0.73005 0.605152 0.28147
61 2 0.230458 0.854947 0.28147
142 2 0.184545 0.73005 0.28147
250 1 0.26995 0.769542 0.343907
304 1 0.26995 0.769542 0.219033
196 2 0.355356 0.809035 0.28147
70 2 0.480254 0.854947 0.28147
151 2 0.434341 0.73005 0.28147
259 1 0.519746 0.769542 0.343907
313 1 0.519746 0.769542 0.219033
160 2 0.684137 0.73005 0.28147
205 2 0.605152 0.809035 0.28147
79 2 0.73005 0.854947 0.28147
214 2 0.854947 0.809035 0.28147
268 1 0.769542 0.769542 0.343907
322 1 0.769542 0.769542 0.219033
137 2 0.184545 0.230458 0.531219
164 2 0.230458 0.184545 0.406344
218 1 0.145052 0.145052 0.468781
245 1 0.26995 0.26995 0.593656
272 1 0.145052 0.145052 0.593656
299 1 0.26995 0.26995 0.468781
29 2 0.309443 0.184545 0.531219
83 2 0.355356 0.230458 0.406344
227 1 0.394848 0.145052 0.468781
281 1 0.394848 0.145052 0.593656
38 2 0.559239 0.184545 0.531219
146 2 0.434341 0.230458 0.531219
173 2 0.480254 0.184545 0.406344
254 1 0.519746 0.26995 0.593656
308 1 0.519746 0.26995 0.468781
92 2 0.605152 0.230458 0.406344
155 2 0.684137 0.230458 0.531219
236 1 0.644644 0.145052 0.468781
290 1 0.644644 0.145052 0.593656
47 2 0.809035 0.184545 0.531219
101 2 0.854947 0.230458 0.406344
182 2 0.73005 0.184545 0.406344
263 1 0.769542 0.26995 0.593656
317 1 0.769542 0.26995 0.468781
2 2 0.184545 0.309443 0.406344
56 2 0.230458 0.355356 0.531219
221 1 0.145052 0.394848 0.468781
275 1 0.145052 0.394848 0.593656
110 2 0.309443 0.355356 0.406344
191 2 0.355356 0.309443 0.531219
230 1 0.394848 0.394848 0.468781
284 1 0.394848 0.394848 0.593656
11 2 0.434341 0.309443 0.406344
65 2 0.480254 0.355356 0.531219
119 2 0.559239 0.355356 0.406344
20 2 0.684137 0.309443 0.406344
200 2 0.605152 0.309443 0.531219
239 1 0.644644 0.394848 0.468781
293 1 0.644644 0.394848 0.593656
74 2 0.73005 0.355356 0.531219
128 2 0.809035 0.355356 0.406344
209 2 0.854947 0.309443 0.531219
5 2 0.184545 0.559239 0.406344
140 2 0.184545 0.480254 0.531219
167 2 0.230458 0.434341 0.406344
248 1 0.26995 0.519746 0.593656
302 1 0.26995 0.519746 0.468781
32 2 0.309443 0.434341 0.531219
86 2 0.355356 0.480254 0.406344
194 2 0.355356 0.559239 0.531219
14 2 0.434341 0.559239 0.406344
41 2 0.559239 0.434341 0.531219
149 2 0.434341 0.480254 0.531219
176 2 0.480254 0.434341 0.406344
257 1 0.519746 0.519746 0.593656
311 1 0.519746 0.519746 0.468781
23 2 0.684137 0.559239 0.406344
95 2 0.605152 0.480254 0.406344
158 2 0.684137 0.480254 0.531219
203 2 0.605152 0.559239 0.531219
50 2 0.809035 0.434341 0.531219
104 2 0.854947 0.480254 0.406344
185 2 0.73005 0.434341 0.406344
212 2 0.854947 0.559239 0.531219
266 1 0.769542 0.519746 0.593656
320 1 0.769542 0.519746 0.468781
59 2 0.230458 0.605152 0.531219
170 2 0.230458 0.684137 0.406344
224 1 0.145052 0.644644 0.468781
278 1 0.145052 0.644644 0.593656
35 2 0.309443 0.684137 0.531219
113 2 0.309443 0.605152 0.406344
233 1 0.394848 0.644644 0.468781
287 1 0.394848 0.644644 0.593656
44 2 0.559239 0.684137 0.531219
68 2 0.480254 0.605152 0.531219
122 2 0.559239 0.605152 0.406344
179 2 0.480254 0.684137 0.406344
242 1 0.644644 0.644644 0.468781
296 1 0.644644 0.644644 0.593656
53 2 0.809035 0.684137 0.531219
77 2 0.73005 0.605152 0.531219
131 2 0.809035 0.605152 0.406344
188 2 0.73005 0.684137 0.406344
8 2 0.184545 0.809035 0.406344
62 2 0.230458 0.854947 0.531219
143 2 0.184545 0.73005 0.531219
251 1 0.26995 0.769542 0.593656
305 1 0.26995 0.769542 0.468781
89 2 0.355356 0.73005 0.406344
116 2 0.309443 0.854947 0.406344
197 2 0.355356 0.809035 0.531219
17 2 0.434341 0.809035 0.406344
71 2 0.480254 0.854947 0.531219
125 2 0.559239 0.854947 0.406344
152 2 0.434341 0.73005 0.531219
260 1 0.519746 0.769542 0.593656
314 1 0.519746 0.769542 0.468781
26 2 0.684137 0.809035 0.406344
98 2 0.605152 0.73005 0.406344
161 2 0.684137 0.73005 0.531219
206 2 0.605152 0.809035 0.531219
80 2 0.73005 0.854947 0.531219
107 2 0.854947 0.73005 0.406344
134 2 0.809035 0.854947 0.406344
215 2 0.854947 0.809035 0.531219
269 1 0.769542 0.769542 0.593656
323 1 0.769542 0.769542 0.468781
138 2 0.184545 0.230458 0.780967
165 2 0.230458 0.184545 0.656093
219 1 0.145052 0.145052 0.71853
300 1 0.26995 0.26995 0.71853
30 2 0.309443 0.184545 0.780967
84 2 0.355356 0.230458 0.656093
228 1 0.394848 0.145052 0.71853
39 2 0.559239 0.184545 0.780967
147 2 0.434341 0.230458 0.780967
174 2 0.480254 0.184545 0.656093
309 1 0.519746 0.26995 0.71853
93 2 0.605152 0.230458 0.656093
156 2 0.684137 0.230458 0.780967
237 1 0.644644 0.145052 0.71853
48 2 0.809035 0.184545 0.780967
102 2 0.854947 0.230458 0.656093
183 2 0.73005 0.184545 0.656093
318 1 0.769542 0.26995 0.71853
3 2 0.184545 0.309443 0.656093
57 2 0.230458 0.355356 0.780967
222 1 0.145052 0.394848 0.71853
111 2 0.309443 0.355356 0.656093
192 2 0.355356 0.309443 0.780967
231 1 0.394848 0.394848 0.71853
12 2 0.434341 0.309443 0.656093
66 2 0.480254 0.355356 0.780967
120 2 0.559239 0.355356 0.656093
21 2 0.684137 0.309443 0.656093
201 2 0.605152 0.309443 0.780967
240 1 0.644644 0.394848 0.71853
75 2 0.73005 0.355356 0.780967
129 2 0.809035 0.355356 0.656093
210 2 0.854947 0.309443 0.780967
6 2 0.184545 0.559239 0.656093
141 2 0.184545 0.480254 0.780967
168 2 0.230458 0.434341 0.656093
303 1 0.26995 0.519746 0.71853
33 2 0.309443 0.434341 0.780967
87 2 0.355356 0.480254 0.656093
195 2 0.355356 0.559239 0.780967
15 2 0.434341 0.559239 0.656093
42 2 0.559239 0.434341 0.780967
150 2 0.434341 0.480254 0.780967
177 2 0.480254 0.434341 0.656093
312 1 0.519746 0.519746 0.71853
24 2 0.684137 0.559239 0.656093
96 2 0.605152 0.480254 0.656093
159 2 0.684137 0.480254 0.780967
204 2 0.605152 0.559239 0.780967
51 2 0.809035 0.434341 0.780967
105 2 0.854947 0.480254 0.656093
186 2 0.73005 0.434341 0.656093
213 2 0.854947 0.559239 0.780967
321 1 0.769542 0.519746 0.71853
60 2 0.230458 0.605152 0.780967
171 2 0.230458 0.684137 0.656093
225 1 0.145052 0.644644 0.71853
36 2 0.309443 0.684137 0.780967
114 2 0.309443 0.605152 0.656093
234 1 0.394848 0.644644 0.71853
45 2 0.559239 0.684137 0.780967
69 2 0.480254 0.605152 0.780967
123 2 0.559239 0.605152 0.656093
180 2 0.480254 0.684137 0.656093
243 1 0.644644 0.644644 0.71853
54 2 0.809035 0.684137 0.780967
78 2 0.73005 0.605152 0.780967
132 2 0.809035 0.605152 0.656093
189 2 0.73005 0.684137 0.656093
9 2 0.184545 0.809035 0.656093
63 2 0.230458 0.854947 0.780967
144 2 0.184545 0.73005 0.780967
306 1 0.26995 0.769542 0.71853
90 2 0.355356 0.73005 0.656093
117 2 0.309443 0.854947 0.656093
198 2 0.355356 0.809035 0.780967
18 2 0.434341 0.809035 0.656093
72 2 0.480254 0.854947 0.780967
126 2 0.559239 0.854947 0.656093
153 2 0.434341 0.73005 0.780967
315 1 0.519746 0.769542 0.71853
27 2 0.684137 0.809035 0.656093
99 2 0.605152 0.73005 0.656093
162 2 0.684137 0.73005 0.780967
207 2 0.605152 0.809035 0.780967
81 2 0.73005 0.854947 0.780967
108 2 0.854947 0.73005 0.656093
135 2 0.809035 0.854947 0.656093
216 2 0.854947 0.809035 0.780967
324 1 0.769542 0.769542 0.71853
246 1 0.26995 0.26995 0.843405
273 1 0.145052 0.145052 0.843405
282 1 0.394848 0.145052 0.843405
255 1 0.519746 0.26995 0.843405
291 1 0.644644 0.145052 0.843405
264 1 0.769542 0.26995 0.843405
276 1 0.145052 0.394848 0.843405
285 1 0.394848 0.394848 0.843405
294 1 0.644644 0.394848 0.843405
249 1 0.26995 0.519746 0.843405
258 1 0.519746 0.519746 0.843405
267 1 0.769542 0.519746 0.843405
279 1 0.145052 0.644644 0.843405
288 1 0.394848 0.644644 0.843405
297 1 0.644644 0.644644 0.843405
252 1 0.26995 0.769542 0.843405
261 1 0.519746 0.769542 0.843405
270 1 0.769542 0.769542 0.843405
ITEM: TIMESTEP
100
ITEM: NUMBER OF ATOMS
324
ITEM: BOX BOUNDS pp pp pp
-3.5537860000000001e+00 2.0946214000000001e+01
-3.5537860000000001e+00 2.0946214000000001e+01
-3.1162500000000000e+00 1.6783750000000001e+01
ITEM: ATOMS id type xs ys zs
163 2 0.219101 0.175686 0.153313
82 2 0.347237 0.208611 0.138924
172 2 0.476373 0.1721 0.134023
91 2 0.608351 0.20942 0.13538
100 2 0.854438 0.21795 0.134731
181 2 0.73416 0.174064 0.132556
1 2 0.17522 0.297866 0.137683
109 2 0.30138 0.342358 0.13002
10 2 0.433615 0.299104 0.126895
118 2 0.566383 0.3437 0.127319
19 2 0.696379 0.302877 0.127797
127 2 0.827522 0.343756 0.135989
4 2 0.171194 0.560879 0.134736
166 2 0.208672 0.428528 0.136497
85 2 0.342816 0.474215 0.126855
13 2 0.432071 0.564703 0.125191
175 2 0.477083 0.432673 0.12439
22 2 0.698301 0.567464 0.128051
94 2 0.609746 0.477681 0.12453
103 2 0.865695 0.483074 0.128207
184 2 0.742475 0.434727 0.126506
169 2 0.207301 0.688161 0.13758
112 2 0.298711 0.60537 0.12603
121 2 0.564466 0.61022 0.125037
178 2 0.473442 0.698513 0.127588
130 2 0.829034 0.60954 0.133653
187 2 0.736784 0.698639 0.12622
7 2 0.173986 0.812355 0.137081
88 2 0.340966 0.737093 0.129243
115 2 0.289975 0.858135 0.129645
16 2 0.428972 0.828456 0.133865
124 2 0.555483 0.866149 0.127854
25 2 0.693815 0.829063 0.134621
97 2 0.605213 0.74291 0.125454
106 2 0.860689 0.742392 0.126871
133 2 0.81803 0.859275 0.131185
136 2 0.161186 0.222131 0.275366
217 1 0.200919 0.122165 0.268815
244 1 0.254963 0.256858 0.337387
271 1 0.128194 0.139192 0.3435
298 1 0.25869 0.258421 0.214872
28 2 0.301158 0.161435 0.271892
226 1 0.391855 0.121803 0.206837
280 1 0.389176 0.117556 0.335695
37 2 0.560495 0.158733 0.264945
145 2 0.430541 0.205839 0.269252
253 1 0.521912 0.251011 0.333641
307 1 0.52108 0.254615 0.204129
154 2 0.688729 0.199247 0.270708
235 1 0.650451 0.119846 0.200119
289 1 0.649118 0.113714 0.334582
46 2 0.817619 0.163528 0.265227
262 1 0.782028 0.252446 0.334483
316 1 0.776367 0.25718 0.209336
55 2 0.204747 0.35034 0.271329
220 1 0.121533 0.385445 0.204199
274 1 0.116768 0.388637 0.336156
190 2 0.349248 0.298303 0.267336
229 1 0.389122 0.387539 0.19919
283 1 0.388977 0.388406 0.333348
64 2 0.479968 0.345057 0.263254
199 2 0.61403 0.29711 0.264111
238 1 0.654695 0.389594 0.199324
292 1 0.656002 0.38876 0.332978
73 2 0.745541 0.349802 0.266409
208 2 0.8764 0.284018 0.265711
139 2 0.159138 0.478184 0.265645
247 1 0.25044 0.520293 0.334428
301 1 0.254134 0.51902 0.20437
31 2 0.297825 0.429209 0.264932
193 2 0.344042 0.562368 0.264157
40 2 0.564771 0.431902 0.261886
148 2 0.431627 0.478705 0.261654
256 1 0.522103 0.522528 0.331023
310 1 0.521334 0.521716 0.196929
157 2 0.698527 0.480103 0.264132
202 2 0.612103 0.565375 0.261956
49 2 0.840748 0.428085 0.265197
211 2 0.885528 0.555399 0.260848
265 1 0.793664 0.521344 0.331008
319 1 0.787503 0.521933 0.204212
58 2 0.203598 0.610123 0.269882
223 1 0.119761 0.645172 0.204072
277 1 0.113769 0.648999 0.333827
34 2 0.296317 0.69078 0.267747
232 1 0.386296 0.652321 0.19981
286 1 0.386903 0.655005 0.333589
43 2 0.562311 0.699159 0.264135
67 2 0.478013 0.61228 0.261839
241 1 0.652428 0.655966 0.199477
295 1 0.655276 0.657148 0.332775
52 2 0.849244 0.691642 0.267367
76 2 0.747482 0.617076 0.26365
61 2 0.213371 0.870357 0.264218
142 2 0.157109 0.739906 0.267395
250 1 0.252573 0.782334 0.334715
304 1 0.255963 0.777705 0.209297
196 2 0.345166 0.842091 0.266638
70 2 0.483052 0.884507 0.260657
151 2 0.425897 0.746714 0.264687
259 1 0.51973 0.793868 0.331688
313 1 0.518217 0.787438 0.203753
160 2 0.691174 0.747553 0.26611
205 2 0.610982 0.84161 0.264751
79 2 0.753686 0.879074 0.263042
214 2 0.876493 0.822288 0.260153
268 1 0.787891 0.786106 0.331855
322 1 0.782351 0.77865 0.207788
137 2 0.16627 0.218355 0.539919
164 2 0.216763 0.168126 0.403196
218 1 0.127243 0.144143 0.462859
245 1 0.256235 0.255238 0.602303
272 1 0.202561 0.116867 0.530422
299 1 0.255891 0.256434 0.470917
29 2 0.299056 0.162497 0.532672
83 2 0.34927 0.206503 0.402736
227 1 0.388164 0.117656 0.469185
281 1 0.388891 0.118271 0.600847
38 2 0.560981 0.157597 0.535018
146 2 0.430789 0.204873 0.535618
173 2 0.479417 0.158664 0.401692
254 1 0.520769 0.251299 0.603078
308 1 0.521656 0.250438 0.46829
92 2 0.611872 0.202615 0.401255
155 2 0.691194 0.200315 0.534345
236 1 0.650168 0.113637 0.467511
290 1 0.649517 0.11419 0.600553
47 2 0.82147 0.163343 0.537403
101 2 0.869952 0.209989 0.400373
182 2 0.743122 0.155776 0.402225
263 1 0.782005 0.252481 0.603217
317 1 0.78317 0.251338 0.469096
2 2 0.162137 0.298367 0.405642
56 2 0.205944 0.349542 0.535498
221 1 0.116877 0.388351 0.469947
275 1 0.118065 0.390337 0.603415
110 2 0.296983 0.347204 0.401938
191 2 0.346956 0.297882 0.536084
230 1 0.388484 0.388756 0.468523
284 1 0.388821 0.389739 0.603754
11 2 0.431923 0.296576 0.401169
65 2 0.479764 0.34412 0.536334
119 2 0.564669 0.343806 0.39984
20 2 0.69556 0.296164 0.401006
200 2 0.612695 0.295568 0.53511
239 1 0.65681 0.387762 0.467612
293 1 0.655444 0.387798 0.602574
74 2 0.748416 0.345362 0.535695
128 2 0.838337 0.341943 0.401045
209 2 0.876773 0.283274 0.536054
5 2 0.156763 0.560708 0.402432
140 2 0.158876 0.479613 0.536473
167 2 0.203691 0.430025 0.402211
248 1 0.251523 0.522569 0.603976
302 1 0.250085 0.521558 0.468848
32 2 0.296532 0.432293 0.536241
86 2 0.343639 0.479723 0.400563
194 2 0.343809 0.565112 0.536635
14 2 0.431313 0.565452 0.399943
41 2 0.565693 0.431841 0.535809
149 2 0.432226 0.479974 0.53634
176 2 0.479595 0.43205 0.399726
257 1 0.522973 0.522898 0.604131
311 1 0.522752 0.522963 0.467667
23 2 0.701961 0.565256 0.398843
95 2 0.613661 0.479667 0.399436
158 2 0.70176 0.478989 0.534415
203 2 0.614284 0.565915 0.534801
50 2 0.841188 0.4286 0.536063
104 2 0.884858 0.483462 0.399467
185 2 0.751261 0.430115 0.399927
212 2 0.886296 0.556753 0.534498
266 1 0.794047 0.521015 0.602464
320 1 0.794739 0.521096 0.467463
59 2 0.202478 0.611917 0.535991
170 2 0.199081 0.690811 0.4024
224 1 0.113061 0.649981 0.469662
278 1 0.113943 0.649098 0.602504
35 2 0.29599 0.695902 0.535202
113 2 0.294714 0.612424 0.401733
233 1 0.387406 0.657016 0.468013
287 1 0.389104 0.656594 0.60267
44 2 0.565299 0.702567 0.534921
68 2 0.479619 0.614159 0.535578
122 2 0.56521 0.614298 0.399522
179 2 0.478421 0.701814 0.399896
242 1 0.657411 0.657806 0.466684
296 1 0.657397 0.656213 0.600633
53 2 0.841761 0.698055 0.532723
77 2 0.751328 0.61334 0.533594
131 2 0.841606 0.612082 0.398745
188 2 0.749632 0.697412 0.399085
8 2 0.162656 0.820973 0.399235
62 2 0.20906 0.869561 0.536603
143 2 0.155677 0.742818 0.534918
251 1 0.252339 0.782261 0.60262
305 1 0.250943 0.783163 0.467339
89 2 0.345219 0.748861 0.400441
116 2 0.282293 0.877415 0.401302
197 2 0.341565 0.838288 0.534762
17 2 0.428073 0.841419 0.398981
71 2 0.483286 0.885229 0.534916
125 2 0.555894 0.886436 0.398935
152 2 0.430319 0.75141 0.535027
260 1 0.521697 0.794356 0.603516
314 1 0.520725 0.795038 0.466644
26 2 0.696905 0.84229 0.399051
98 2 0.612623 0.751663 0.399611
161 2 0.697488 0.750398 0.533349
206 2 0.61197 0.842257 0.534538
80 2 0.755218 0.883121 0.53172
107 2 0.882682 0.756105 0.399947
134 2 0.828216 0.876653 0.395783
215 2 0.876195 0.829715 0.534807
269 1 0.786642 0.789188 0.600136
323 1 0.788784 0.789369 0.465655
138 2 0.175236 0.218824 0.78563
165 2 0.223082 0.159954 0.662535
219 1 0.122024 0.20243 0.668107
300 1 0.258579 0.260419 0.72792
30 2 0.300738 0.178043 0.802394
84 2 0.350486 0.207043 0.666881
228 1 0.38556 0.121387 0.733855
39 2 0.560139 0.171862 0.803666
147 2 0.429051 0.209362 0.801807
174 2 0.478837 0.159948 0.671512
309 1 0.519036 0.255304 0.736739
93 2 0.610855 0.205009 0.667113
156 2 0.686367 0.199105 0.79915
237 1 0.643368 0.115912 0.729182
48 2 0.812211 0.171895 0.800386
102 2 0.869474 0.214092 0.673472
183 2 0.740719 0.156188 0.668039
318 1 0.775101 0.254655 0.734207
3 2 0.162382 0.302533 0.668386
57 2 0.209786 0.349041 0.800569
222 1 0.121828 0.392827 0.733512
111 2 0.298817 0.350258 0.670686
192 2 0.343579 0.303931 0.807526
231 1 0.389239 0.390576 0.741772
12 2 0.429662 0.298665 0.672529
66 2 0.47644 0.343837 0.809499
120 2 0.563038 0.345248 0.672552
21 2 0.691397 0.297268 0.670074
201 2 0.60773 0.299143 0.808721
240 1 0.653625 0.38797 0.739779
75 2 0.740157 0.345572 0.804659
129 2 0.838651 0.345178 0.670332
210 2 0.857605 0.289083 0.808894
6 2 0.159436 0.560471 0.673071
141 2 0.175354 0.476806 0.806372
168 2 0.207451 0.431576 0.668881
303 1 0.256547 0.522714 0.737539
33 2 0.302159 0.435874 0.81032
87 2 0.346185 0.481139 0.673315
195 2 0.345216 0.567673 0.808959
15 2 0.432565 0.565385 0.673735
42 2 0.56681 0.433826 0.81019
150 2 0.435169 0.47786 0.811554
177 2 0.479883 0.432464 0.674285
312 1 0.522981 0.522524 0.742571
24 2 0.699616 0.563735 0.669916
96 2 0.613267 0.47949 0.673185
159 2 0.699898 0.475421 0.807269
204 2 0.611144 0.566808 0.809081
51 2 0.830637 0.433501 0.800587
105 2 0.884987 0.484891 0.672985
186 2 0.747361 0.428423 0.669793
213 2 0.868173 0.559522 0.805624
321 1 0.788046 0.520321 0.734218
60 2 0.210464 0.609889 0.802502
171 2 0.199748 0.689035 0.666522
225 1 0.119058 0.650113 0.738192
36 2 0.305552 0.697622 0.807787
114 2 0.297614 0.615252 0.672387
234 1 0.391307 0.655448 0.740163
45 2 0.569596 0.700305 0.805886
69 2 0.47895 0.610597 0.810053
123 2 0.565902 0.613448 0.672347
180 2 0.481051 0.699299 0.670674
243 1 0.656832 0.653904 0.73812
54 2 0.830353 0.697956 0.796677
78 2 0.743615 0.607282 0.807621
132 2 0.841208 0.612932 0.667743
189 2 0.748047 0.692881 0.666516
9 2 0.163061 0.817144 0.672084
63 2 0.217963 0.857878 0.800992
144 2 0.177197 0.735162 0.807134
306 1 0.258134 0.777565 0.729313
90 2 0.350422 0.746296 0.669238
117 2 0.284217 0.87719 0.669533
198 2 0.34312 0.828243 0.798933
18 2 0.428465 0.840551 0.669417
72 2 0.4832 0.867387 0.806538
126 2 0.555651 0.886656 0.672689
153 2 0.43689 0.742964 0.808354
315 1 0.523094 0.788237 0.733636
27 2 0.692303 0.849157 0.666044
99 2 0.61758 0.748745 0.669478
162 2 0.700545 0.739216 0.805333
207 2 0.609503 0.830875 0.799057
81 2 0.745862 0.862621 0.80641
108 2 0.880707 0.75524 0.666985
135 2 0.822695 0.878837 0.670414
216 2 0.863689 0.821165 0.798433
324 1 0.78129 0.784306 0.725251
246 1 0.252919 0.260206 0.864056
273 1 0.146403 0.129524 0.73755
282 1 0.380558 0.12752 0.851929
255 1 0.516945 0.253971 0.86942
291 1 0.638183 0.117215 0.847492
264 1 0.76718 0.252218 0.865304
276 1 0.126679 0.395038 0.852135
285 1 0.38903 0.38964 0.87276
294 1 0.654291 0.387524 0.870625
249 1 0.256452 0.524194 0.870744
258 1 0.523579 0.522574 0.872834
267 1 0.787091 0.517707 0.870468
279 1 0.128356 0.654434 0.856176
288 1 0.391414 0.655285 0.872071
297 1 0.656507 0.65416 0.870205
252 1 0.261142 0.782323 0.872029
261 1 0.526422 0.786608 0.870385
270 1 0.787937 0.780015 0.871532
ITEM: TIMESTEP
200
ITEM: NUMBER OF ATOMS
324
ITEM: BOX BOUNDS pp pp pp
-3.5537860000000001e+00 2.0946214000000001e+01
-3.5537860000000001e+00 2.0946214000000001e+01
-3.1162500000000000e+00 1.6783750000000001e+01
ITEM: ATOMS id type xs ys zs
163 2 0.219078 0.175647 0.153376
82 2 0.347211 0.208577 0.138976
172 2 0.476355 0.172078 0.134043
91 2 0.608338 0.20943 0.13535
100 2 0.854442 0.21801 0.13465
181 2 0.734164 0.174113 0.132482
1 2 0.175197 0.297828 0.137734
109 2 0.301363 0.342316 0.130044
10 2 0.433596 0.299075 0.126912
118 2 0.566368 0.343702 0.127301
19 2 0.696371 0.302911 0.127763
127 2 0.827516 0.343812 0.13594
4 2 0.171211 0.560845 0.134703
166 2 0.208668 0.428485 0.136507
85 2 0.342814 0.474176 0.126859
13 2 0.432086 0.564681 0.125182
175 2 0.477074 0.432655 0.124387
22 2 0.698309 0.567496 0.128061
94 2 0.609743 0.477694 0.124526
103 2 0.865704 0.483119 0.128217
184 2 0.742475 0.434769 0.126487
169 2 0.207345 0.688126 0.137519
112 2 0.298736 0.605328 0.125992
121 2 0.564476 0.610226 0.125032
178 2 0.473463 0.698508 0.127589
130 2 0.829044 0.609581 0.133691
187 2 0.7368 0.698672 0.126263
7 2 0.174063 0.812327 0.136991
88 2 0.341002 0.737057 0.129197
115 2 0.290049 0.858107 0.129576
16 2 0.428998 0.828454 0.133859
124 2 0.555502 0.866161 0.127874
25 2 0.693832 0.829091 0.134683
97 2 0.605231 0.74293 0.12548
106 2 0.860706 0.742438 0.126951
133 2 0.818043 0.859318 0.131285
136 2 0.161168 0.222103 0.275427
217 1 0.200903 0.122134 0.268883
244 1 0.254952 0.256834 0.337437
271 1 0.128181 0.139162 0.34357
298 1 0.258672 0.25839 0.214919
28 2 0.301135 0.161409 0.271955
226 1 0.391833 0.12178 0.20689
280 1 0.389165 0.117536 0.33574
37 2 0.560491 0.158728 0.264917
145 2 0.430524 0.205821 0.269275
253 1 0.521906 0.251005 0.333629
307 1 0.521069 0.254605 0.204127
154 2 0.688728 0.199268 0.270638
235 1 0.650456 0.119866 0.200055
289 1 0.649133 0.113719 0.334511
46 2 0.81763 0.163569 0.265135
262 1 0.782034 0.252474 0.334416
316 1 0.776372 0.25722 0.209271
55 2 0.204732 0.35031 0.271371
220 1 0.12152 0.385419 0.204215
274 1 0.116757 0.388613 0.336187
190 2 0.349233 0.298284 0.267367
229 1 0.389109 0.387514 0.1992
283 1 0.388967 0.38839 0.333356
64 2 0.479956 0.345045 0.263256
199 2 0.614024 0.297123 0.264083
238 1 0.65469 0.389614 0.199304
292 1 0.655997 0.388769 0.332956
73 2 0.745541 0.349829 0.266373
208 2 0.876408 0.284061 0.265643
139 2 0.159136 0.478159 0.26564
247 1 0.25044 0.520271 0.334421
301 1 0.254139 0.51899 0.204355
31 2 0.297811 0.429181 0.264941
193 2 0.344045 0.562345 0.264137
40 2 0.564761 0.431899 0.261874
148 2 0.431623 0.478687 0.261647
256 1 0.522096 0.522523 0.331016
310 1 0.521334 0.521711 0.196924
157 2 0.698525 0.480119 0.264123
202 2 0.612099 0.565382 0.261957
49 2 0.840749 0.428116 0.265187
211 2 0.885531 0.555428 0.260881
265 1 0.793662 0.521363 0.331021
319 1 0.787506 0.521965 0.204225
58 2 0.203606 0.610091 0.269844
223 1 0.119789 0.645158 0.204007
277 1 0.113787 0.648993 0.333766
34 2 0.296311 0.690747 0.267703
232 1 0.386308 0.652296 0.199786
286 1 0.3869 0.654994 0.333565
43 2 0.562305 0.699163 0.264145
67 2 0.478016 0.612273 0.261832
241 1 0.652433 0.655982 0.199495
295 1 0.655269 0.657154 0.332794
52 2 0.849241 0.691664 0.267427
76 2 0.747481 0.617093 0.263676
61 2 0.213401 0.870342 0.264131
142 2 0.15716 0.739887 0.267316
250 1 0.252605 0.782337 0.334643
304 1 0.256037 0.777694 0.209245
196 2 0.345203 0.842168 0.266613
70 2 0.483061 0.884523 0.260663
151 2 0.425884 0.746715 0.264667
259 1 0.519726 0.793874 0.331694
313 1 0.518227 0.787447 0.203767
160 2 0.691173 0.747563 0.266153
205 2 0.610985 0.84162 0.264788
79 2 0.753682 0.879094 0.263131
214 2 0.876491 0.822312 0.260254
268 1 0.787881 0.786117 0.33193
322 1 0.782355 0.778678 0.20786
137 2 0.166281 0.218385 0.540018
164 2 0.21675 0.168115 0.40327
218 1 0.127173 0.144283 0.462912
245 1 0.256251 0.255252 0.602374
272 1 0.202493 0.116899 0.530467
299 1 0.255885 0.25643 0.470973
29 2 0.299035 0.162491 0.532733
83 2 0.349259 0.206491 0.402786
227 1 0.388147 0.117646 0.469233
281 1 0.388899 0.118261 0.600899
38 2 0.560988 0.157587 0.534982
146 2 0.430787 0.204857 0.535644
173 2 0.479412 0.15865 0.401698
254 1 0.520775 0.251292 0.603063
308 1 0.521653 0.250427 0.468277
92 2 0.611873 0.202612 0.401209
155 2 0.691201 0.200303 0.534273
236 1 0.650181 0.113636 0.467441
290 1 0.649527 0.114183 0.600508
47 2 0.82148 0.163343 0.537298
101 2 0.869962 0.210014 0.400284
182 2 0.743128 0.155791 0.402137
263 1 0.782016 0.252471 0.603125
317 1 0.783177 0.25135 0.469018
2 2 0.162128 0.298345 0.405705
56 2 0.205942 0.349549 0.535539
221 1 0.116868 0.388335 0.469982
275 1 0.118073 0.390358 0.603461
110 2 0.296974 0.347189 0.401968
191 2 0.346958 0.297872 0.53612
230 1 0.388477 0.388744 0.468532
284 1 0.38882 0.389743 0.603762
11 2 0.431916 0.296562 0.401181
65 2 0.479761 0.344113 0.536327
119 2 0.564661 0.343803 0.399819
20 2 0.695557 0.296167 0.400955
200 2 0.612695 0.295558 0.535071
239 1 0.656802 0.387761 0.467583
293 1 0.655435 0.387791 0.602538
74 2 0.748416 0.345365 0.535639
128 2 0.838343 0.341966 0.400991
209 2 0.87678 0.283286 0.535975
5 2 0.156761 0.560703 0.402406
140 2 0.15887 0.479616 0.536477
167 2 0.203675 0.430008 0.402224
248 1 0.251515 0.522578 0.603961
302 1 0.25008 0.521553 0.468835
32 2 0.296531 0.432294 0.536244
86 2 0.343637 0.479706 0.400559
194 2 0.343804 0.565111 0.53662
14 2 0.431305 0.565443 0.399933
41 2 0.565687 0.43184 0.535792
149 2 0.432216 0.479973 0.53634
176 2 0.479587 0.432042 0.399721
257 1 0.522963 0.522895 0.604126
311 1 0.522743 0.522957 0.467661
23 2 0.701954 0.565258 0.398855
95 2 0.613655 0.479667 0.399424
158 2 0.701748 0.478986 0.534418
203 2 0.614272 0.565908 0.534808
50 2 0.84118 0.428599 0.536051
104 2 0.884856 0.483477 0.399478
185 2 0.751253 0.430127 0.399913
212 2 0.886283 0.556744 0.53454
266 1 0.794026 0.520991 0.602478
320 1 0.794729 0.521098 0.467478
59 2 0.202471 0.611921 0.535955
170 2 0.199095 0.690806 0.402345
224 1 0.113063 0.649987 0.469607
278 1 0.113941 0.64912 0.602453
35 2 0.29598 0.695907 0.535156
113 2 0.294713 0.612408 0.401707
233 1 0.387397 0.657011 0.467987
287 1 0.389088 0.656595 0.602646
44 2 0.56528 0.702558 0.534916
68 2 0.479603 0.614152 0.535567
122 2 0.565201 0.614293 0.399523
179 2 0.478412 0.701812 0.399882
242 1 0.657396 0.657802 0.466701
296 1 0.657375 0.6562 0.600655
53 2 0.841751 0.698031 0.532789
77 2 0.751309 0.613332 0.533623
131 2 0.8416 0.612091 0.39879
188 2 0.749623 0.697411 0.399126
8 2 0.16267 0.820968 0.399146
62 2 0.209054 0.869574 0.536523
143 2 0.155683 0.74283 0.53485
251 1 0.252333 0.782283 0.602557
305 1 0.250948 0.783172 0.467274
89 2 0.345219 0.748858 0.400392
116 2 0.282297 0.877424 0.401247
197 2 0.341563 0.838296 0.534713
17 2 0.42807 0.841423 0.398973
71 2 0.483278 0.885229 0.534921
125 2 0.555892 0.886436 0.398963
152 2 0.430301 0.751404 0.535008
260 1 0.521674 0.794346 0.603519
314 1 0.520713 0.795035 0.466652
26 2 0.696893 0.842292 0.39912
98 2 0.612611 0.751666 0.399632
161 2 0.697474 0.750384 0.533391
206 2 0.611958 0.842243 0.534583
80 2 0.755194 0.883077 0.531833
107 2 0.882671 0.756104 0.400024
134 2 0.828197 0.876656 0.39589
215 2 0.876183 0.82969 0.53489
269 1 0.786647 0.789146 0.600234
323 1 0.788773 0.789352 0.46573
138 2 0.175283 0.218871 0.785731
165 2 0.223086 0.159977 0.662631
219 1 0.122039 0.20248 0.66823
300 1 0.258619 0.260446 0.727981
30 2 0.300782 0.178079 0.802467
84 2 0.350511 0.207023 0.666926
228 1 0.38561 0.121396 0.733936
39 2 0.560207 0.171883 0.803641
147 2 0.429101 0.209393 0.801819
174 2 0.478865 0.159941 0.671526
309 1 0.51906 0.255308 0.736716
93 2 0.610875 0.205003 0.667059
156 2 0.686435 0.199223 0.799078
237 1 0.643425 0.115951 0.729167
48 2 0.812262 0.171852 0.800255
102 2 0.869508 0.214076 0.673353
183 2 0.740734 0.156181 0.667958
318 1 0.77515 0.254622 0.734081
3 2 0.162406 0.302569 0.668468
57 2 0.209826 0.349081 0.800632
222 1 0.121846 0.392858 0.733574
111 2 0.298824 0.350278 0.670716
192 2 0.343617 0.303961 0.807547
231 1 0.389245 0.390594 0.741781
12 2 0.429664 0.298669 0.672531
66 2 0.476447 0.343845 0.8095
120 2 0.563038 0.345244 0.672517
21 2 0.691409 0.297264 0.670004
201 2 0.607726 0.299158 0.80869
240 1 0.65361 0.38795 0.739755
75 2 0.740112 0.345452 0.804659
129 2 0.838629 0.345154 0.670279
210 2 0.857644 0.289046 0.808793
6 2 0.159431 0.560493 0.673046
141 2 0.175351 0.476839 0.806383
168 2 0.207455 0.431606 0.668903
303 1 0.256537 0.522739 0.737542
33 2 0.302168 0.435914 0.810344
87 2 0.346177 0.481151 0.673313
195 2 0.3452 0.567701 0.808949
15 2 0.432552 0.565389 0.673725