ITEM: TIMESTEP
0
ITEM: NUMBER OF ATOMS
324
ITEM: BOX BOUNDS pp pp pp
-3.5537860000000001e+00 2.0946214000000001e+01
-3.5537860000000001e+00 2.0946214000000001e+01
-3.1162500000000000e+00 1.6783750000000001e+01
ITEM: ATOMS id type xs ys zs
163 2 0.219078 0.175647 0.153376
82 2 0.34721 0.208577 0.138976
172 2 0.476355 0.172078 0.134043
91 2 0.608338 0.20943 0.13535
100 2 0.854442 0.21801 0.13465
181 2 0.734164 0.174113 0.132482
1 2 0.175197 0.297828 0.137734
166 2 0.208668 0.428485 0.136507
109 2 0.301363 0.342316 0.130044
229 1 0.389109 0.387514 0.1992
10 2 0.433596 0.299075 0.126912
118 2 0.566368 0.343702 0.127301
19 2 0.696371 0.302911 0.127763
238 1 0.65469 0.389614 0.199304
127 2 0.827516 0.343812 0.13594
4 2 0.171211 0.560845 0.134703
85 2 0.342814 0.474176 0.12686
13 2 0.432086 0.564681 0.125183
175 2 0.477074 0.432655 0.124387
310 1 0.521334 0.521711 0.196924
22 2 0.698309 0.567496 0.128062
94 2 0.609743 0.477694 0.124526
184 2 0.742475 0.434769 0.126487
103 2 0.865704 0.48312 0.128217
169 2 0.207345 0.688126 0.137519
112 2 0.298736 0.605328 0.125992
232 1 0.386308 0.652296 0.199786
121 2 0.564476 0.610226 0.125032
178 2 0.473463 0.698508 0.127589
241 1 0.652433 0.655982 0.199495
130 2 0.829044 0.609581 0.133691
187 2 0.7368 0.698672 0.126263
7 2 0.174063 0.812327 0.136991
88 2 0.341002 0.737057 0.129196
16 2 0.428998 0.828454 0.133859
25 2 0.693832 0.829091 0.134683
97 2 0.605231 0.74293 0.12548
106 2 0.860706 0.742438 0.126951
115 2 0.29005 0.858106 0.129576
124 2 0.555502 0.866161 0.127874
133 2 0.818043 0.859318 0.131285
271 1 0.128181 0.139162 0.34357
217 1 0.200903 0.122134 0.268883
226 1 0.391833 0.12178 0.20689
280 1 0.389165 0.117536 0.33574
235 1 0.650456 0.119866 0.200055
289 1 0.649133 0.11372 0.334511
136 2 0.161168 0.222103 0.275427
244 1 0.254952 0.256834 0.337437
298 1 0.258672 0.25839 0.214919
28 2 0.301135 0.161409 0.271956
37 2 0.560491 0.158728 0.264917
145 2 0.430524 0.205821 0.269275
253 1 0.521906 0.251005 0.333629
307 1 0.521069 0.254605 0.204127
154 2 0.688728 0.199268 0.270638
46 2 0.81763 0.163569 0.265135
262 1 0.782034 0.252474 0.334416
316 1 0.776372 0.257221 0.209271
208 2 0.876408 0.284061 0.265643
220 1 0.12152 0.385419 0.204215
274 1 0.116757 0.388613 0.336188
55 2 0.204732 0.35031 0.271371
190 2 0.349233 0.298284 0.267367
283 1 0.388967 0.38839 0.333356
64 2 0.479956 0.345045 0.263256
119 2 0.564661 0.343803 0.399819
199 2 0.614024 0.297123 0.264083
292 1 0.655997 0.388769 0.332956
73 2 0.745541 0.349829 0.266373
49 2 0.840749 0.428116 0.265187
139 2 0.159136 0.478159 0.26564
247 1 0.25044 0.520271 0.334421
301 1 0.254139 0.51899 0.204355
31 2 0.297811 0.429181 0.264941
193 2 0.344045 0.562345 0.264137
40 2 0.564761 0.431899 0.261874
148 2 0.431623 0.478687 0.261647
256 1 0.522096 0.522523 0.331016
14 2 0.431305 0.565443 0.399933
176 2 0.479587 0.432042 0.399721
157 2 0.698525 0.480119 0.264123
202 2 0.612099 0.565382 0.261957
23 2 0.701954 0.565258 0.398855
95 2 0.613655 0.479667 0.399424
265 1 0.793662 0.521364 0.331021
319 1 0.787506 0.521965 0.204225
185 2 0.751253 0.430127 0.399913
211 2 0.885531 0.555428 0.260881
104 2 0.884856 0.483477 0.399479
223 1 0.11979 0.645158 0.204007
277 1 0.113787 0.648993 0.333766
58 2 0.203606 0.610091 0.269844
34 2 0.296311 0.690747 0.267703
286 1 0.3869 0.654994 0.333565
43 2 0.562305 0.699163 0.264145
67 2 0.478016 0.612273 0.261832
122 2 0.565201 0.614293 0.399524
179 2 0.478412 0.701812 0.399882
295 1 0.655269 0.657154 0.332794
52 2 0.849241 0.691664 0.267427
76 2 0.747481 0.617093 0.263676
131 2 0.8416 0.612091 0.39879
188 2 0.749623 0.697411 0.399126
142 2 0.15716 0.739887 0.267316
250 1 0.252605 0.782337 0.334643
304 1 0.256037 0.777694 0.209245
8 2 0.16267 0.820968 0.399146
196 2 0.345203 0.842169 0.266613
151 2 0.425884 0.746715 0.264667
17 2 0.42807 0.841423 0.398973
259 1 0.519726 0.793874 0.331694
313 1 0.518227 0.787447 0.203767
160 2 0.691173 0.747563 0.266153
205 2 0.610985 0.84162 0.264788
26 2 0.696893 0.842292 0.39912
98 2 0.612611 0.751666 0.399632
268 1 0.787881 0.786117 0.33193
322 1 0.782355 0.778678 0.20786
214 2 0.876491 0.822312 0.260254
61 2 0.213401 0.870342 0.264131
70 2 0.483061 0.884523 0.260663
125 2 0.555892 0.886436 0.398963
79 2 0.753682 0.879094 0.263132
134 2 0.828197 0.876656 0.39589
272 1 0.202493 0.116899 0.530467
227 1 0.388147 0.117646 0.469233
236 1 0.650181 0.113636 0.467441
218 1 0.127173 0.144283 0.462912
137 2 0.166281 0.218385 0.540018
164 2 0.21675 0.168115 0.40327
299 1 0.255885 0.25643 0.470973
29 2 0.299035 0.162491 0.532733
83 2 0.349259 0.206491 0.402786
38 2 0.560988 0.157587 0.534981
146 2 0.430787 0.204856 0.535644
173 2 0.479412 0.15865 0.401698
308 1 0.521653 0.250427 0.468277
92 2 0.611873 0.202612 0.401209
155 2 0.691201 0.200303 0.534273
47 2 0.821481 0.163343 0.537297
182 2 0.743128 0.155791 0.402137
317 1 0.783177 0.25135 0.469018
101 2 0.869962 0.210014 0.400284
209 2 0.87678 0.283286 0.535975
221 1 0.116868 0.388335 0.469982
2 2 0.162128 0.298345 0.405705
56 2 0.205942 0.349549 0.535539
110 2 0.296974 0.347189 0.401968
191 2 0.346958 0.297872 0.53612
230 1 0.388477 0.388744 0.468532
11 2 0.431916 0.296562 0.401181
65 2 0.479761 0.344113 0.536327
20 2 0.695557 0.296167 0.400955
200 2 0.612695 0.295558 0.535071
239 1 0.656802 0.387761 0.467583
74 2 0.748416 0.345365 0.535639
128 2 0.838343 0.341966 0.400991
5 2 0.156761 0.560703 0.402406
140 2 0.158871 0.479616 0.536477
167 2 0.203675 0.430008 0.402224
302 1 0.25008 0.521553 0.468835
32 2 0.296531 0.432294 0.536244
86 2 0.343637 0.479706 0.400559
194 2 0.343804 0.565111 0.53662
41 2 0.565687 0.43184 0.535792
149 2 0.432216 0.479973 0.53634
311 1 0.522743 0.522957 0.467661
158 2 0.701748 0.478986 0.534418
203 2 0.614272 0.565908 0.534808
50 2 0.84118 0.428599 0.536051
320 1 0.794729 0.521098 0.467478
212 2 0.886283 0.556744 0.53454
224 1 0.113063 0.649987 0.469607
59 2 0.202471 0.611921 0.535955
170 2 0.199095 0.690806 0.402345
35 2 0.29598 0.695907 0.535156
113 2 0.294713 0.612408 0.401707
233 1 0.387397 0.657011 0.467987
44 2 0.56528 0.702558 0.534916
68 2 0.479603 0.614152 0.535567
242 1 0.657396 0.657802 0.466701
53 2 0.841751 0.698031 0.532789
77 2 0.751309 0.613332 0.533623
143 2 0.155683 0.74283 0.53485
305 1 0.250948 0.783172 0.467274
89 2 0.345219 0.748858 0.400392
197 2 0.341563 0.838296 0.534713
152 2 0.430301 0.751404 0.535008
314 1 0.520713 0.795035 0.466652
161 2 0.697474 0.750384 0.533391
206 2 0.611958 0.842243 0.534583
323 1 0.788773 0.789352 0.46573
107 2 0.882671 0.756104 0.400024
215 2 0.876183 0.829691 0.53489
62 2 0.209054 0.869574 0.536523
116 2 0.282297 0.877424 0.401247
71 2 0.483278 0.885229 0.534921
80 2 0.755194 0.883078 0.531833
273 1 0.146417 0.129574 0.737675
281 1 0.388899 0.118261 0.600899
228 1 0.38561 0.121396 0.733936
290 1 0.649527 0.114183 0.600507
237 1 0.643425 0.11595 0.729166
219 1 0.122039 0.20248 0.66823
245 1 0.256251 0.255252 0.602375
138 2 0.175283 0.218871 0.785731
165 2 0.223086 0.159977 0.662632
300 1 0.258619 0.260446 0.727981
84 2 0.350511 0.207023 0.666926
254 1 0.520775 0.251292 0.603063
174 2 0.478865 0.159941 0.671526
309 1 0.51906 0.255308 0.736716
93 2 0.610875 0.205003 0.667059
156 2 0.686435 0.199222 0.799078
263 1 0.782016 0.252471 0.603125
183 2 0.740734 0.15618 0.667958
318 1 0.775149 0.254622 0.734082
102 2 0.869508 0.214076 0.673353
275 1 0.118073 0.390358 0.603461
222 1 0.121847 0.392858 0.733574
3 2 0.162406 0.302569 0.668468
284 1 0.38882 0.389743 0.603762
111 2 0.298824 0.350278 0.670716
231 1 0.389245 0.390594 0.741781
12 2 0.429664 0.298669 0.672531
120 2 0.563038 0.345244 0.672517
293 1 0.655435 0.387791 0.602538
21 2 0.691409 0.297264 0.670004
240 1 0.65361 0.38795 0.739755
129 2 0.838629 0.345154 0.670279
186 2 0.747343 0.428391 0.669796
248 1 0.251515 0.522578 0.603961
6 2 0.159431 0.560493 0.673046
168 2 0.207455 0.431606 0.668903
303 1 0.256537 0.522739 0.737542
87 2 0.346177 0.481151 0.673313
257 1 0.522963 0.522895 0.604126
15 2 0.432552 0.565389 0.673725
177 2 0.479879 0.432468 0.674285
312 1 0.522972 0.522526 0.742566
24 2 0.699601 0.563719 0.669935
96 2 0.613257 0.47948 0.673178
266 1 0.794026 0.520991 0.602478
321 1 0.788017 0.520274 0.734247
105 2 0.884955 0.48485 0.673012
278 1 0.113942 0.64912 0.602453
225 1 0.119043 0.650151 0.738125
171 2 0.199752 0.68906 0.666471
287 1 0.389088 0.656595 0.602646
114 2 0.297597 0.615257 0.672366
234 1 0.391283 0.655459 0.740146
123 2 0.565883 0.61344 0.672357
180 2 0.481026 0.699295 0.670668
296 1 0.657375 0.6562 0.600656
243 1 0.656809 0.653891 0.73814
54 2 0.830372 0.697884 0.7967
132 2 0.841166 0.612893 0.667791
189 2 0.748022 0.692876 0.666557
251 1 0.252334 0.782283 0.602556
9 2 0.163048 0.817168 0.672003
306 1 0.258114 0.777602 0.729258
90 2 0.350399 0.746301 0.669196
198 2 0.343098 0.828274 0.798872
18 2 0.428447 0.84055 0.669395
260 1 0.521674 0.794346 0.603519
315 1 0.523068 0.788229 0.733646
27 2 0.692312 0.84901 0.666154
99 2 0.617525 0.748703 0.669492
207 2 0.609476 0.83086 0.79909
269 1 0.786647 0.789146 0.600234
324 1 0.781364 0.784246 0.725417
108 2 0.880739 0.755191 0.667052
216 2 0.863775 0.821124 0.798488
117 2 0.284204 0.877221 0.669459
126 2 0.555639 0.88664 0.672714
135 2 0.822706 0.878793 0.670503
282 1 0.380605 0.127583 0.85202
291 1 0.638307 0.117313 0.847475
246 1 0.252985 0.260254 0.864124
30 2 0.300782 0.178079 0.802467
39 2 0.560207 0.171883 0.80364
147 2 0.429101 0.209393 0.801819
255 1 0.517 0.253981 0.869414
48 2 0.812262 0.171852 0.800255
264 1 0.767353 0.252124 0.865333
276 1 0.126714 0.395062 0.852199
57 2 0.209826 0.349081 0.800632
192 2 0.343617 0.303961 0.807547
285 1 0.389048 0.389673 0.872773
66 2 0.476447 0.343845 0.8095
201 2 0.607726 0.299158 0.80869
294 1 0.654269 0.387491 0.870628
75 2 0.740112 0.345452 0.804659
210 2 0.857644 0.289046 0.808793
141 2 0.175351 0.476839 0.806383
249 1 0.25644 0.524247 0.870738
33 2 0.302168 0.435914 0.810344
195 2 0.3452 0.567701 0.808949
42 2 0.566804 0.43383 0.810189
150 2 0.435166 0.477883 0.811547
258 1 0.523573 0.522579 0.87284
159 2 0.699878 0.47537 0.807269
204 2 0.611137 0.566795 0.809085
51 2 0.830584 0.433426 0.800591
267 1 0.787054 0.517641 0.870487
213 2 0.868145 0.559449 0.80566
279 1 0.128315 0.654481 0.856107
60 2 0.210435 0.609929 0.80247
36 2 0.305518 0.697651 0.807745
288 1 0.391378 0.65531 0.872055
45 2 0.569564 0.700293 0.805912
69 2 0.478926 0.610601 0.810054
297 1 0.656489 0.654157 0.870208
78 2 0.743595 0.607254 0.807646
144 2 0.177166 0.735207 0.807066
252 1 0.26111 0.782368 0.871961
153 2 0.436852 0.742974 0.808335
261 1 0.526378 0.786603 0.870391
162 2 0.70051 0.739222 0.805308
270 1 0.787936 0.779942 0.871456
63 2 0.21794 0.857924 0.800909
72 2 0.48317 0.867387 0.806533
81 2 0.745915 0.862631 0.806461
ITEM: TIMESTEP
100
ITEM: NUMBER OF ATOMS
324
ITEM: BOX BOUNDS pp pp pp
-3.5537860000000001e+00 2.0946214000000001e+01
-3.5537860000000001e+00 2.0946214000000001e+01
-3.1162500000000000e+00 1.6783750000000001e+01
ITEM: ATOMS id type xs ys zs
163 2 0.219078 0.175647 0.153376
82 2 0.34721 0.208577 0.138976
172 2 0.476355 0.172078 0.134043
91 2 0.608338 0.20943 0.13535
100 2 0.854442 0.21801 0.13465
181 2 0.734164 0.174113 0.132482
1 2 0.175197 0.297828 0.137734
166 2 0.208668 0.428485 0.136507
109 2 0.301363 0.342316 0.130044
229 1 0.389109 0.387514 0.1992
10 2 0.433596 0.299075 0.126912
118 2 0.566368 0.343702 0.127301
19 2 0.696371 0.302911 0.127763
238 1 0.65469 0.389614 0.199304
127 2 0.827516 0.343812 0.13594
4 2 0.171211 0.560845 0.134703
85 2 0.342814 0.474176 0.12686
13 2 0.432086 0.564681 0.125183
175 2 0.477074 0.432655 0.124387
310 1 0.521334 0.521711 0.196924
22 2 0.698309 0.567496 0.128062
94 2 0.609743 0.477694 0.124526
184 2 0.742475 0.434769 0.126487
103 2 0.865704 0.48312 0.128217
169 2 0.207345 0.688126 0.137519
112 2 0.298736 0.605328 0.125992
232 1 0.386308 0.652296 0.199786
121 2 0.564476 0.610226 0.125032
178 2 0.473463 0.698508 0.127589
241 1 0.652433 0.655982 0.199495
130 2 0.829044 0.609581 0.133691
187 2 0.7368 0.698672 0.126263
7 2 0.174063 0.812327 0.136991
88 2 0.341002 0.737057 0.129196
16 2 0.428998 0.828454 0.133859
25 2 0.693832 0.829091 0.134683
97 2 0.605231 0.74293 0.12548
106 2 0.860706 0.742438 0.126951
115 2 0.29005 0.858106 0.129576
124 2 0.555502 0.866161 0.127874
133 2 0.818043 0.859318 0.131285
271 1 0.128181 0.139162 0.34357
217 1 0.200903 0.122134 0.268883
226 1 0.391833 0.12178 0.20689
280 1 0.389165 0.117536 0.33574
235 1 0.650456 0.119866 0.200055
289 1 0.649133 0.11372 0.334511
136 2 0.161168 0.222103 0.275427
244 1 0.254952 0.256834 0.337437
298 1 0.258672 0.25839 0.214919
28 2 0.301135 0.161409 0.271956
37 2 0.560491 0.158728 0.264917
145 2 0.430524 0.205821 0.269275
253 1 0.521906 0.251005 0.333629
307 1 0.521069 0.254605 0.204127
154 2 0.688728 0.199268 0.270638
46 2 0.81763 0.163569 0.265135
262 1 0.782034 0.252474 0.334416
316 1 0.776372 0.257221 0.209271
208 2 0.876408 0.284061 0.265643
220 1 0.12152 0.385419 0.204215
274 1 0.116757 0.388613 0.336188
55 2 0.204732 0.35031 0.271371
190 2 0.349233 0.298284 0.267367
283 1 0.388967 0.38839 0.333356
64 2 0.479956 0.345045 0.263256
119 2 0.564661 0.343803 0.399819
199 2 0.614024 0.297123 0.264083
292 1 0.655997 0.388769 0.332956
73 2 0.745541 0.349829 0.266373
49 2 0.840749 0.428116 0.265187
139 2 0.159136 0.478159 0.26564
247 1 0.25044 0.520271 0.334421
301 1 0.254139 0.51899 0.204355
31 2 0.297811 0.429181 0.264941
193 2 0.344045 0.562345 0.264137
40 2 0.564761 0.431899 0.261874
148 2 0.431623 0.478687 0.261647
256 1 0.522096 0.522523 0.331016
14 2 0.431305 0.565443 0.399933
176 2 0.479587 0.432042 0.399721
157 2 0.698525 0.480119 0.264123
202 2 0.612099 0.565382 0.261957
23 2 0.701954 0.565258 0.398855
95 2 0.613655 0.479667 0.399424
265 1 0.793662 0.521364 0.331021
319 1 0.787506 0.521965 0.204225
185 2 0.751253 0.430127 0.399913
211 2 0.885531 0.555428 0.260881
104 2 0.884856 0.483477 0.399479
223 1 0.11979 0.645158 0.204007
277 1 0.113787 0.648993 0.333766
58 2 0.203606 0.610091 0.269844
34 2 0.296311 0.690747 0.267703
286 1 0.3869 0.654994 0.333565
43 2 0.562305 0.699163 0.264145
67 2 0.478016 0.612273 0.261832
122 2 0.565201 0.614293 0.399524
179 2 0.478412 0.701812 0.399882
295 1 0.655269 0.657154 0.332794
52 2 0.849241 0.691664 0.267427
76 2 0.747481 0.617093 0.263676
131 2 0.8416 0.612091 0.39879
188 2 0.749623 0.697411 0.399126
142 2 0.15716 0.739887 0.267316
250 1 0.252605 0.782337 0.334643
304 1 0.256037 0.777694 0.209245
8 2 0.16267 0.820968 0.399146
196 2 0.345203 0.842168 0.266613
151 2 0.425884 0.746715 0.264667
17 2 0.42807 0.841423 0.398973
259 1 0.519726 0.793874 0.331694
313 1 0.518227 0.787447 0.203767
160 2 0.691173 0.747563 0.266153
205 2 0.610985 0.84162 0.264788
26 2 0.696893 0.842292 0.39912
98 2 0.612611 0.751666 0.399632
268 1 0.787881 0.786117 0.33193
322 1 0.782355 0.778678 0.20786
214 2 0.876491 0.822312 0.260254
61 2 0.213401 0.870342 0.264131
70 2 0.483061 0.884523 0.260663
125 2 0.555892 0.886436 0.398963
79 2 0.753682 0.879094 0.263132
134 2 0.828197 0.876656 0.39589
272 1 0.202493 0.116899 0.530467
227 1 0.388147 0.117646 0.469233
236 1 0.650181 0.113636 0.467441
218 1 0.127173 0.144283 0.462912
137 2 0.166281 0.218385 0.540018
164 2 0.21675 0.168115 0.40327
299 1 0.255885 0.25643 0.470973
29 2 0.299035 0.162491 0.532733
83 2 0.349259 0.206491 0.402786
38 2 0.560988 0.157587 0.534981
146 2 0.430787 0.204856 0.535644
173 2 0.479412 0.15865 0.401698
308 1 0.521653 0.250426 0.468277
92 2 0.611873 0.202612 0.401209
155 2 0.691201 0.200303 0.534273
47 2 0.821481 0.163343 0.537297
182 2 0.743128 0.155791 0.402137
317 1 0.783177 0.25135 0.469018
101 2 0.869962 0.210014 0.400284
209 2 0.87678 0.283286 0.535975
221 1 0.116868 0.388335 0.469982
2 2 0.162128 0.298345 0.405705
56 2 0.205942 0.349549 0.535539
110 2 0.296974 0.347189 0.401968
191 2 0.346958 0.297872 0.53612
230 1 0.388477 0.388744 0.468532
11 2 0.431916 0.296562 0.401181
65 2 0.479761 0.344113 0.536327
20 2 0.695557 0.296167 0.400955
200 2 0.612695 0.295558 0.535071
239 1 0.656802 0.387761 0.467583
74 2 0.748416 0.345365 0.535639
128 2 0.838343 0.341966 0.400991
5 2 0.156761 0.560703 0.402406
140 2 0.158871 0.479616 0.536477
167 2 0.203675 0.430008 0.402224
302 1 0.25008 0.521553 0.468835
32 2 0.296531 0.432294 0.536244
86 2 0.343637 0.479706 0.400559
194 2 0.343804 0.565111 0.53662
41 2 0.565687 0.43184 0.535792
149 2 0.432216 0.479973 0.53634
311 1 0.522743 0.522957 0.467661
158 2 0.701748 0.478986 0.534418
203 2 0.614272 0.565908 0.534808
50 2 0.84118 0.428599 0.536051
320 1 0.794729 0.521098 0.467478
212 2 0.886283 0.556744 0.53454
224 1 0.113063 0.649987 0.469607
59 2 0.202471 0.611921 0.535955
170 2 0.199095 0.690806 0.402345
35 2 0.29598 0.695907 0.535156
113 2 0.294713 0.612408 0.401707
233 1 0.387397 0.657011 0.467987
44 2 0.56528 0.702558 0.534916
68 2 0.479603 0.614152 0.535567
242 1 0.657396 0.657802 0.466701
53 2 0.841751 0.698031 0.532789
77 2 0.751309 0.613332 0.533623
143 2 0.155683 0.74283 0.53485
305 1 0.250948 0.783172 0.467274
89 2 0.345219 0.748858 0.400392
197 2 0.341563 0.838296 0.534713
152 2 0.430301 0.751404 0.535008
314 1 0.520713 0.795035 0.466652
161 2 0.697474 0.750384 0.533391
206 2 0.611958 0.842243 0.534583
323 1 0.788773 0.789352 0.46573
107 2 0.882671 0.756104 0.400024
215 2 0.876183 0.829691 0.53489
62 2 0.209054 0.869574 0.536523
116 2 0.282297 0.877424 0.401247
71 2 0.483278 0.885229 0.534921
80 2 0.755194 0.883078 0.531833
273 1 0.146417 0.129574 0.737675
281 1 0.388899 0.118261 0.600899
228 1 0.38561 0.121396 0.733936
290 1 0.649527 0.114183 0.600507
237 1 0.643425 0.11595 0.729166
219 1 0.122039 0.20248 0.66823
245 1 0.256251 0.255252 0.602375
138 2 0.175283 0.218871 0.785731
165 2 0.223086 0.159977 0.662632
300 1 0.258619 0.260446 0.727981
84 2 0.350511 0.207023 0.666926
254 1 0.520775 0.251292 0.603063
174 2 0.478865 0.159941 0.671526
309 1 0.51906 0.255308 0.736716
93 2 0.610875 0.205003 0.667059
156 2 0.686435 0.199222 0.799078
263 1 0.782016 0.252471 0.603125
183 2 0.740734 0.15618 0.667958
318 1 0.77515 0.254622 0.734082
102 2 0.869508 0.214076 0.673353
275 1 0.118073 0.390358 0.603461
222 1 0.121847 0.392858 0.733574
3 2 0.162406 0.302569 0.668468
284 1 0.38882 0.389743 0.603762
111 2 0.298824 0.350278 0.670716
231 1 0.389245 0.390594 0.741781
12 2 0.429664 0.298669 0.672531
120 2 0.563038 0.345244 0.672517
293 1 0.655435 0.387791 0.602538
21 2 0.691409 0.297264 0.670004
240 1 0.65361 0.38795 0.739755
129 2 0.838629 0.345154 0.670279
186 2 0.747343 0.428391 0.669796
248 1 0.251515 0.522578 0.603961
6 2 0.159431 0.560493 0.673046
168 2 0.207455 0.431606 0.668903
303 1 0.256537 0.522739 0.737542
87 2 0.346177 0.481151 0.673313
257 1 0.522963 0.522895 0.604126
15 2 0.432552 0.565389 0.673725
177 2 0.479879 0.432468 0.674285
312 1 0.522972 0.522526 0.742566
24 2 0.699601 0.563719 0.669935
96 2 0.613257 0.47948 0.673178
266 1 0.794026 0.520991 0.602478
321 1 0.788017 0.520274 0.734247
105 2 0.884955 0.48485 0.673012
278 1 0.113942 0.64912 0.602453
225 1 0.119043 0.650151 0.738125
171 2 0.199752 0.68906 0.666471
287 1 0.389088 0.656595 0.602646
114 2 0.297597 0.615257 0.672366
234 1 0.391283 0.655459 0.740146
123 2 0.565883 0.61344 0.672357
180 2 0.481026 0.699295 0.670668
296 1 0.657375 0.6562 0.600656
243 1 0.656809 0.653891 0.73814
54 2 0.830372 0.697884 0.7967
132 2 0.841166 0.612893 0.667791
189 2 0.748022 0.692876 0.666557
251 1 0.252334 0.782283 0.602556
9 2 0.163048 0.817168 0.672003
306 1 0.258114 0.777602 0.729258
90 2 0.350399 0.746301 0.669196
198 2 0.343098 0.828274 0.798872
18 2 0.428447 0.84055 0.669395
260 1 0.521674 0.794346 0.603519
315 1 0.523068 0.788229 0.733646
27 2 0.692312 0.84901 0.666154
99 2 0.617525 0.748703 0.669492
207 2 0.609476 0.83086 0.79909
269 1 0.786647 0.789146 0.600234
324 1 0.781364 0.784246 0.725417
108 2 0.880739 0.755191 0.667052
216 2 0.863775 0.821124 0.798488
117 2 0.284204 0.877221 0.669459
126 2 0.555639 0.88664 0.672714
135 2 0.822706 0.878793 0.670503
282 1 0.380605 0.127583 0.85202
291 1 0.638307 0.117313 0.847475
246 1 0.252985 0.260254 0.864124
30 2 0.300782 0.178079 0.802467
39 2 0.560207 0.171883 0.80364
147 2 0.429101 0.209393 0.801819
255 1 0.517 0.253981 0.869414
48 2 0.812262 0.171852 0.800255
264 1 0.767353 0.252124 0.865333
276 1 0.126714 0.395062 0.852199
57 2 0.209826 0.349081 0.800632
192 2 0.343617 0.303961 0.807547
285 1 0.389048 0.389673 0.872773
66 2 0.476447 0.343845 0.8095
201 2 0.607726 0.299158 0.80869
294 1 0.654269 0.387491 0.870628
75 2 0.740112 0.345452 0.804659
210 2 0.857644 0.289046 0.808793
141 2 0.175351 0.476839 0.806383
249 1 0.25644 0.524247 0.870738
33 2 0.302168 0.435914 0.810344
195 2 0.3452 0.567701 0.808949
42 2 0.566804 0.43383 0.810189
150 2 0.435166 0.477883 0.811547
258 1 0.523573 0.522579 0.87284
159 2 0.699878 0.47537 0.807269
204 2 0.611137 0.566795 0.809085
51 2 0.830584 0.433426 0.800591
267 1 0.787054 0.517641 0.870487
213 2 0.868145 0.559449 0.80566
279 1 0.128315 0.654481 0.856107
60 2 0.210435 0.609929 0.80247
36 2 0.305518 0.697651 0.807745
288 1 0.391378 0.65531 0.872055
45 2 0.569564 0.700293 0.805912
69 2 0.478926 0.610601 0.810054
297 1 0.656489 0.654157 0.870208
78 2 0.743595 0.607254 0.807646
144 2 0.177166 0.735207 0.807066
252 1 0.26111 0.782368 0.871961
153 2 0.436852 0.742974 0.808335
261 1 0.526378 0.786603 0.870391
162 2 0.70051 0.739222 0.805308
270 1 0.787936 0.779942 0.871456
63 2 0.21794 0.857924 0.800909
72 2 0.48317 0.867387 0.806533
81 2 0.745915 0.862631 0.806461
ITEM: TIMESTEP
200
ITEM: NUMBER OF ATOMS
324
ITEM: BOX BOUNDS pp pp pp
-3.5537860000000001e+00 2.0946214000000001e+01
-3.5537860000000001e+00 2.0946214000000001e+01
-3.1162500000000000e+00 1.6783750000000001e+01
ITEM: ATOMS id type xs ys zs
163 2 0.219078 0.175647 0.153376
82 2 0.34721 0.208577 0.138976
172 2 0.476355 0.172078 0.134043
91 2 0.608338 0.20943 0.13535
100 2 0.854442 0.21801 0.13465
181 2 0.734164 0.174113 0.132482
1 2 0.175197 0.297828 0.137734
166 2 0.208668 0.428485 0.136507
109 2 0.301363 0.342316 0.130044
229 1 0.389109 0.387514 0.1992
10 2 0.433596 0.299075 0.126912
118 2 0.566368 0.343702 0.127301
19 2 0.696371 0.302911 0.127763
238 1 0.65469 0.389614 0.199304
127 2 0.827516 0.343812 0.13594
4 2 0.171211 0.560845 0.134703
85 2 0.342814 0.474176 0.12686
13 2 0.432086 0.564681 0.125183
175 2 0.477074 0.432655 0.124387
310 1 0.521334 0.521711 0.196924
22 2 0.698309 0.567496 0.128062
94 2 0.609743 0.477694 0.124526
184 2 0.742475 0.434769 0.126487
103 2 0.865704 0.48312 0.128217
169 2 0.207345 0.688126 0.137519
112 2 0.298736 0.605328 0.125992
232 1 0.386308 0.652296 0.199786
121 2 0.564476 0.610226 0.125032
178 2 0.473463 0.698508 0.127589
241 1 0.652433 0.655982 0.199495
130 2 0.829044 0.609581 0.133691
187 2 0.7368 0.698672 0.126263
7 2 0.174063 0.812327 0.136991
88 2 0.341002 0.737057 0.129196
16 2 0.428998 0.828454 0.133859
25 2 0.693832 0.829091 0.134683
97 2 0.605231 0.74293 0.12548
106 2 0.860706 0.742438 0.126951
115 2 0.29005 0.858106 0.129576
124 2 0.555502 0.866161 0.127874
133 2 0.818043 0.859318 0.131285
271 1 0.128181 0.139162 0.34357
217 1 0.200903 0.122134 0.268883
226 1 0.391833 0.12178 0.20689
280 1 0.389165 0.117536 0.33574
235 1 0.650456 0.119866 0.200055
289 1 0.649133 0.11372 0.334511
136 2 0.161168 0.222103 0.275427
244 1 0.254952 0.256834 0.337437
298 1 0.258672 0.25839 0.214919
28 2 0.301135 0.161409 0.271956
37 2 0.560491 0.158728 0.264917
145 2 0.430524 0.205821 0.269275
253 1 0.521906 0.251005 0.333629
307 1 0.521069 0.254605 0.204127
154 2 0.688728 0.199268 0.270638
46 2 0.81763 0.163569 0.265135
262 1 0.782034 0.252474 0.334416
316 1 0.776372 0.257221 0.209271
208 2 0.876408 0.284061 0.265643
220 1 0.12152 0.385419 0.204215
274 1 0.116757 0.388613 0.336188
55 2 0.204732 0.35031 0.271371
190 2 0.349233 0.298284 0.267367
283 1 0.388967 0.38839 0.333356
64 2 0.479956 0.345045 0.263256
119 2 0.564661 0.343803 0.399819
199 2 0.614024 0.297123 0.264083
292 1 0.655997 0.388769 0.332956
73 2 0.745541 0.349829 0.266373
49 2 0.840749 0.428116 0.265187
139 2 0.159136 0.478159 0.26564
247 1 0.25044 0.520271 0.334421
301 1 0.254139 0.51899 0.204355
31 2 0.297811 0.429181 0.264941
193 2 0.344045 0.562345 0.264137
40 2 0.564761 0.431899 0.261874
148 2 0.431623 0.478687 0.261647
256 1 0.522096 0.522523 0.331016
14 2 0.431305 0.565443 0.399933
176 2 0.479587 0.432042 0.399721
157 2 0.698525 0.480119 0.264123
202 2 0.612099 0.565382 0.261957
23 2 0.701954 0.565258 0.398855
95 2 0.613655 0.479667 0.399424
265 1 0.793662 0.521364 0.331021
319 1 0.787506 0.521965 0.204225
185 2 0.751253 0.430127 0.399913
211 2 0.885531 0.555428 0.260881
104 2 0.884856 0.483477 0.399479
223 1 0.11979 0.645158 0.204007
277 1 0.113787 0.648993 0.333766
58 2 0.203606 0.610091 0.269844
34 2 0.296311 0.690747 0.267703
286 1 0.3869 0.654994 0.333565
43 2 0.562305 0.699163 0.264145
67 2 0.478016 0.612273 0.261832
122 2 0.565201 0.614293 0.399524
179 2 0.478412 0.701812 0.399882
295 1 0.655269 0.657154 0.332794
52 2 0.849241 0.691664 0.267427
76 2 0.747481 0.617093 0.263676
131 2 0.8416 0.612091 0.39879
188 2 0.749623 0.697411 0.399126
142 2 0.15716 0.739887 0.267316
250 1 0.252605 0.782337 0.334643
304 1 0.256037 0.777694 0.209245
8 2 0.16267 0.820969 0.399146
196 2 0.345203 0.842168 0.266613
151 2 0.425884 0.746715 0.264667
17 2 0.42807 0.841423 0.398973
259 1 0.519726 0.793874 0.331694
313 1 0.518227 0.787447 0.203767
160 2 0.691173 0.747563 0.266153
205 2 0.610985 0.84162 0.264788
26 2 0.696893 0.842292 0.39912
98 2 0.612611 0.751666 0.399632
268 1 0.787881 0.786117 0.33193
322 1 0.782355 0.778678 0.20786
214 2 0.876491 0.822312 0.260254
61 2 0.213401 0.870342 0.264131
70 2 0.483061 0.884523 0.260663
125 2 0.555892 0.886436 0.398963
79 2 0.753682 0.879094 0.263132
134 2 0.828197 0.876656 0.39589
272 1 0.202493 0.116899 0.530467
227 1 0.388147 0.117646 0.469233
236 1 0.650181 0.113636 0.467441
218 1 0.127173 0.144283 0.462912
137 2 0.166281 0.218385 0.540018
164 2 0.21675 0.168115 0.40327
299 1 0.255885 0.25643 0.470973
29 2 0.299035 0.162491 0.532733
83 2 0.349259 0.206491 0.402786
38 2 0.560988 0.157587 0.534981
146 2 0.430787 0.204856 0.535644
173 2 0.479412 0.15865 0.401698
308 1 0.521653 0.250427 0.468277
92 2 0.611873 0.202612 0.401209
155 2 0.691201 0.200303 0.534273
47 2 0.821481 0.163343 0.537297
182 2 0.743128 0.155791 0.402137
317 1 0.783177 0.25135 0.469018
101 2 0.869962 0.210014 0.400284
209 2 0.87678 0.283286 0.535975
221 1 0.116868 0.388335 0.469982
2 2 0.162128 0.298345 0.405705
56 2 0.205942 0.349549 0.535539
110 2 0.296974 0.347189 0.401968
191 2 0.346958 0.297872 0.53612
230 1 0.388477 0.388744 0.468532
11 2 0.431916 0.296562 0.401181
65 2 0.479761 0.344113 0.536327
20 2 0.695557 0.296167 0.400955
200 2 0.612695 0.295558 0.535071
239 1 0.656802 0.387761 0.467583
74 2 0.748416 0.345365 0.535639
128 2 0.838343 0.341966 0.400991
5 2 0.156761 0.560703 0.402406
140 2 0.158871 0.479616 0.536477
167 2 0.203675 0.430008 0.402224
302 1 0.25008 0.521553 0.468835
32 2 0.296531 0.432294 0.536244
86 2 0.343637 0.479706 0.400559
194 2 0.343804 0.565111 0.53662
41 2 0.565687 0.43184 0.535792
149 2 0.432216 0.479973 0.53634
311 1 0.522743 0.522957 0.467661
158 2 0.701748 0.478986 0.534418
203 2 0.614272 0.565908 0.534808
50 2 0.84118 0.428599 0.536051
320 1 0.794729 0.521098 0.467478
212 2 0.886283 0.556744 0.53454
224 1 0.113063 0.649987 0.469607
59 2 0.202471 0.611921 0.535955
170 2 0.199095 0.690806 0.402345
35 2 0.29598 0.695907 0.535156
113 2 0.294713 0.612408 0.401707
233 1 0.387397 0.657011 0.467987
44 2 0.56528 0.702558 0.534916
68 2 0.479603 0.614152 0.535567
242 1 0.657396 0.657802 0.466701
53 2 0.841751 0.698031 0.532789
77 2 0.751309 0.613332 0.533623
143 2 0.155683 0.74283 0.53485
305 1 0.250948 0.783172 0.467274
89 2 0.345219 0.748858 0.400392
197 2 0.341563 0.838296 0.534713
152 2 0.430301 0.751404 0.535008
314 1 0.520713 0.795035 0.466652
161 2 0.697474 0.750384 0.533391
206 2 0.611958 0.842243 0.534583
323 1 0.788773 0.789352 0.46573
107 2 0.882671 0.756104 0.400024
215 2 0.876183 0.82969 0.53489
62 2 0.209054 0.869574 0.536523
116 2 0.282297 0.877424 0.401247
71 2 0.483278 0.885229 0.534921
80 2 0.755194 0.883078 0.531833
273 1 0.146417 0.129574 0.737675
281 1 0.388899 0.118261 0.600899
228 1 0.38561 0.121396 0.733936
290 1 0.649527 0.114183 0.600507
237 1 0.643425 0.11595 0.729166
219 1 0.122039 0.20248 0.66823
245 1 0.256251 0.255252 0.602375
138 2 0.175283 0.218871 0.785731
165 2 0.223086 0.159977 0.662632
300 1 0.258619 0.260446 0.727981
84 2 0.350511 0.207023 0.666926
254 1 0.520775 0.251292 0.603063
174 2 0.478865 0.159941 0.671526
309 1 0.51906 0.255308 0.736716
93 2 0.610875 0.205003 0.667059
156 2 0.686435 0.199222 0.799078
263 1 0.782016 0.252471 0.603125
183 2 0.740734 0.15618 0.667958
318 1 0.77515 0.254622 0.734082
102 2 0.869508 0.214076 0.673353
275 1 0.118073 0.390358 0.603461
222 1 0.121847 0.392858 0.733574
3 2 0.162406 0.302569 0.668468
284 1 0.38882 0.389743 0.603762
111 2 0.298824 0.350278 0.670716
231 1 0.389245 0.390594 0.741781
12 2 0.429664 0.298669 0.672531
120 2 0.563038 0.345244 0.672517
293 1 0.655435 0.387791 0.602538
21 2 0.691409 0.297264 0.670004
240 1 0.65361 0.38795 0.739755
129 2 0.838629 0.345154 0.670279
186 2 0.747343 0.428391 0.669796
248 1 0.251515 0.522578 0.603961
6 2 0.159431 0.560493 0.673046
168 2 0.207455 0.431606 0.668903
303 1 0.256537 0.522739 0.737542
87 2 0.346177 0.481151 0.673313
257 1 0.522963 0.522895 0.604126
15 2 0.432552 0.565389 0.673725
177 2 0.479879 0.432468 0.674285
312 1 0.522972 0.522526 0.742566
24 2 0.699601 0.563719 0.669935
96 2 0.613257 0.47948 0.673178
266 1 0.794026 0.520991 0.602478
321 1 0.788017 0.520274 0.734247
105 2 0.884955 0.48485 0.673012
278 1 0.113942 0.64912 0.602453
225 1 0.119043 0.650151 0.738125
171 2 0.199752 0.68906 0.666471
287 1 0.389088 0.656595 0.602646
114 2 0.297597 0.615257 0.672366
234 1 0.391283 0.655459 0.740146
123 2 0.565883 0.61344 0.672357
180 2 0.481026 0.699295 0.670668
296 1 0.657375 0.6562 0.600656
243 1 0.656809 0.653891 0.73814
54 2 0.830372 0.697884 0.7967