LAMMPS data file. CGCMM style. atom_style full generated by VMD/TopoTools v1.7 on Tue Sep 02 09:32:48 +0330 2025
 402 atoms
 0 bonds
 0 angles
 0 dihedrals
 0 impropers
 2 atom types
 0 bond types
 0 angle types
 0 dihedral types
 0 improper types
 0.500000 18.600000  xlo xhi
 0.500000 18.600000  ylo yhi
 0.500000 15.000000  zlo zhi

# Pair Coeffs
#
# 1  Co
# 2  Ta

 Masses

 1 58.933201 # Co
 2 180.947906 # Ta

 Atoms # full

1 1 2 0.000000 2.087619 0.969881 2.486000 # Ta 
2 1 2 0.000000 2.087619 0.969881 7.458000 # Ta 
3 1 2 0.000000 2.087619 0.969881 12.430000 # Ta 
4 1 2 0.000000 2.087619 7.084881 2.486000 # Ta 
5 1 2 0.000000 2.087619 7.084881 7.458000 # Ta 
6 1 2 0.000000 2.087619 7.084881 12.430000 # Ta 
7 1 2 0.000000 2.087619 13.199881 2.486000 # Ta 
8 1 2 0.000000 2.087619 13.199881 7.458000 # Ta 
9 1 2 0.000000 2.087619 13.199881 12.430000 # Ta 
10 1 2 0.000000 8.202618 0.969881 2.486000 # Ta 
11 1 2 0.000000 8.202618 0.969881 7.458000 # Ta 
12 1 2 0.000000 8.202618 0.969881 12.430000 # Ta 
13 1 2 0.000000 8.202618 7.084881 2.486000 # Ta 
14 1 2 0.000000 8.202618 7.084881 7.458000 # Ta 
15 1 2 0.000000 8.202618 7.084881 12.430000 # Ta 
16 1 2 0.000000 8.202618 13.199881 2.486000 # Ta 
17 1 2 0.000000 8.202618 13.199881 7.458000 # Ta 
18 1 2 0.000000 8.202618 13.199881 12.430000 # Ta 
19 1 2 0.000000 14.317618 0.969881 2.486000 # Ta 
20 1 2 0.000000 14.317618 0.969881 7.458000 # Ta 
21 1 2 0.000000 14.317618 0.969881 12.430000 # Ta 
22 1 2 0.000000 14.317618 7.084881 2.486000 # Ta 
23 1 2 0.000000 14.317618 7.084881 7.458000 # Ta 
24 1 2 0.000000 14.317618 7.084881 12.430000 # Ta 
25 1 2 0.000000 14.317618 13.199881 2.486000 # Ta 
26 1 2 0.000000 14.317618 13.199881 7.458000 # Ta 
27 1 2 0.000000 14.317618 13.199881 12.430000 # Ta 
28 1 2 0.000000 4.027381 0.969881 0.000000 # Ta 
29 1 2 0.000000 4.027381 0.969881 14.916000 # Ta 
30 1 2 0.000000 4.027381 0.969881 4.972000 # Ta 
31 1 2 0.000000 4.027381 0.969881 9.944000 # Ta 
32 1 2 0.000000 4.027381 7.084881 0.000000 # Ta 
33 1 2 0.000000 4.027381 7.084881 14.916000 # Ta 
34 1 2 0.000000 4.027381 7.084881 4.972000 # Ta 
35 1 2 0.000000 4.027381 7.084881 9.944000 # Ta 
36 1 2 0.000000 4.027381 13.199881 0.000000 # Ta 
37 1 2 0.000000 4.027381 13.199881 14.916000 # Ta 
38 1 2 0.000000 4.027381 13.199881 4.972000 # Ta 
39 1 2 0.000000 4.027381 13.199881 9.944000 # Ta 
40 1 2 0.000000 10.142381 0.969881 0.000000 # Ta 
41 1 2 0.000000 10.142381 0.969881 14.916000 # Ta 
42 1 2 0.000000 10.142381 0.969881 4.972000 # Ta 
43 1 2 0.000000 10.142381 0.969881 9.944000 # Ta 
44 1 2 0.000000 10.142381 7.084881 0.000000 # Ta 
45 1 2 0.000000 10.142381 7.084881 14.916000 # Ta 
46 1 2 0.000000 10.142381 7.084881 4.972000 # Ta 
47 1 2 0.000000 10.142381 7.084881 9.944000 # Ta 
48 1 2 0.000000 10.142381 13.199881 0.000000 # Ta 
49 1 2 0.000000 10.142381 13.199881 14.916000 # Ta 
50 1 2 0.000000 10.142381 13.199881 4.972000 # Ta 
51 1 2 0.000000 10.142381 13.199881 9.944000 # Ta 
52 1 2 0.000000 16.257381 0.969881 0.000000 # Ta 
53 1 2 0.000000 16.257381 0.969881 14.916000 # Ta 
54 1 2 0.000000 16.257381 0.969881 4.972000 # Ta 
55 1 2 0.000000 16.257381 0.969881 9.944000 # Ta 
56 1 2 0.000000 16.257381 7.084881 0.000000 # Ta 
57 1 2 0.000000 16.257381 7.084881 14.916000 # Ta 
58 1 2 0.000000 16.257381 7.084881 4.972000 # Ta 
59 1 2 0.000000 16.257381 7.084881 9.944000 # Ta 
60 1 2 0.000000 16.257381 13.199881 0.000000 # Ta 
61 1 2 0.000000 16.257381 13.199881 14.916000 # Ta 
62 1 2 0.000000 16.257381 13.199881 4.972000 # Ta 
63 1 2 0.000000 16.257381 13.199881 9.944000 # Ta 
64 1 2 0.000000 2.087619 5.145119 0.000000 # Ta 
65 1 2 0.000000 2.087619 5.145119 14.916000 # Ta 
66 1 2 0.000000 2.087619 5.145119 4.972000 # Ta 
67 1 2 0.000000 2.087619 5.145119 9.944000 # Ta 
68 1 2 0.000000 2.087619 11.260119 0.000000 # Ta 
69 1 2 0.000000 2.087619 11.260119 14.916000 # Ta 
70 1 2 0.000000 2.087619 11.260119 4.972000 # Ta 
71 1 2 0.000000 2.087619 11.260119 9.944000 # Ta 
72 1 2 0.000000 2.087619 17.375118 0.000000 # Ta 
73 1 2 0.000000 2.087619 17.375118 14.916000 # Ta 
74 1 2 0.000000 2.087619 17.375118 4.972000 # Ta 
75 1 2 0.000000 2.087619 17.375118 9.944000 # Ta 
76 1 2 0.000000 8.202618 5.145119 0.000000 # Ta 
77 1 2 0.000000 8.202618 5.145119 14.916000 # Ta 
78 1 2 0.000000 8.202618 5.145119 4.972000 # Ta 
79 1 2 0.000000 8.202618 5.145119 9.944000 # Ta 
80 1 2 0.000000 8.202618 11.260119 0.000000 # Ta 
81 1 2 0.000000 8.202618 11.260119 14.916000 # Ta 
82 1 2 0.000000 8.202618 11.260119 4.972000 # Ta 
83 1 2 0.000000 8.202618 11.260119 9.944000 # Ta 
84 1 2 0.000000 8.202618 17.375118 0.000000 # Ta 
85 1 2 0.000000 8.202618 17.375118 14.916000 # Ta 
86 1 2 0.000000 8.202618 17.375118 4.972000 # Ta 
87 1 2 0.000000 8.202618 17.375118 9.944000 # Ta 
88 1 2 0.000000 14.317618 5.145119 0.000000 # Ta 
89 1 2 0.000000 14.317618 5.145119 14.916000 # Ta 
90 1 2 0.000000 14.317618 5.145119 4.972000 # Ta 
91 1 2 0.000000 14.317618 5.145119 9.944000 # Ta 
92 1 2 0.000000 14.317618 11.260119 0.000000 # Ta 
93 1 2 0.000000 14.317618 11.260119 14.916000 # Ta 
94 1 2 0.000000 14.317618 11.260119 4.972000 # Ta 
95 1 2 0.000000 14.317618 11.260119 9.944000 # Ta 
96 1 2 0.000000 14.317618 17.375118 0.000000 # Ta 
97 1 2 0.000000 14.317618 17.375118 14.916000 # Ta 
98 1 2 0.000000 14.317618 17.375118 4.972000 # Ta 
99 1 2 0.000000 14.317618 17.375118 9.944000 # Ta 
100 1 2 0.000000 4.027381 5.145119 2.486000 # Ta 
101 1 2 0.000000 4.027381 5.145119 7.458000 # Ta 
102 1 2 0.000000 4.027381 5.145119 12.430000 # Ta 
103 1 2 0.000000 4.027381 11.260119 2.486000 # Ta 
104 1 2 0.000000 4.027381 11.260119 7.458000 # Ta 
105 1 2 0.000000 4.027381 11.260119 12.430000 # Ta 
106 1 2 0.000000 4.027381 17.375118 2.486000 # Ta 
107 1 2 0.000000 4.027381 17.375118 7.458000 # Ta 
108 1 2 0.000000 4.027381 17.375118 12.430000 # Ta 
109 1 2 0.000000 10.142381 5.145119 2.486000 # Ta 
110 1 2 0.000000 10.142381 5.145119 7.458000 # Ta 
111 1 2 0.000000 10.142381 5.145119 12.430000 # Ta 
112 1 2 0.000000 10.142381 11.260119 2.486000 # Ta 
113 1 2 0.000000 10.142381 11.260119 7.458000 # Ta 
114 1 2 0.000000 10.142381 11.260119 12.430000 # Ta 
115 1 2 0.000000 10.142381 17.375118 2.486000 # Ta 
116 1 2 0.000000 10.142381 17.375118 7.458000 # Ta 
117 1 2 0.000000 10.142381 17.375118 12.430000 # Ta 
118 1 2 0.000000 16.257381 5.145119 2.486000 # Ta 
119 1 2 0.000000 16.257381 5.145119 7.458000 # Ta 
120 1 2 0.000000 16.257381 5.145119 12.430000 # Ta 
121 1 2 0.000000 16.257381 11.260119 2.486000 # Ta 
122 1 2 0.000000 16.257381 11.260119 7.458000 # Ta 
123 1 2 0.000000 16.257381 11.260119 12.430000 # Ta 
124 1 2 0.000000 16.257381 17.375118 2.486000 # Ta 
125 1 2 0.000000 16.257381 17.375118 7.458000 # Ta 
126 1 2 0.000000 16.257381 17.375118 12.430000 # Ta 
127 1 2 0.000000 5.145119 4.027381 0.000000 # Ta 
128 1 2 0.000000 5.145119 4.027381 14.916000 # Ta 
129 1 2 0.000000 5.145119 4.027381 4.972000 # Ta 
130 1 2 0.000000 5.145119 4.027381 9.944000 # Ta 
131 1 2 0.000000 5.145119 10.142381 0.000000 # Ta 
132 1 2 0.000000 5.145119 10.142381 14.916000 # Ta 
133 1 2 0.000000 5.145119 10.142381 4.972000 # Ta 
134 1 2 0.000000 5.145119 10.142381 9.944000 # Ta 
135 1 2 0.000000 5.145119 16.257381 0.000000 # Ta 
136 1 2 0.000000 5.145119 16.257381 14.916000 # Ta 
137 1 2 0.000000 5.145119 16.257381 4.972000 # Ta 
138 1 2 0.000000 5.145119 16.257381 9.944000 # Ta 
139 1 2 0.000000 11.260119 4.027381 0.000000 # Ta 
140 1 2 0.000000 11.260119 4.027381 14.916000 # Ta 
141 1 2 0.000000 11.260119 4.027381 4.972000 # Ta 
142 1 2 0.000000 11.260119 4.027381 9.944000 # Ta 
143 1 2 0.000000 11.260119 10.142381 0.000000 # Ta 
144 1 2 0.000000 11.260119 10.142381 14.916000 # Ta 
145 1 2 0.000000 11.260119 10.142381 4.972000 # Ta 
146 1 2 0.000000 11.260119 10.142381 9.944000 # Ta 
147 1 2 0.000000 11.260119 16.257381 0.000000 # Ta 
148 1 2 0.000000 11.260119 16.257381 14.916000 # Ta 
149 1 2 0.000000 11.260119 16.257381 4.972000 # Ta 
150 1 2 0.000000 11.260119 16.257381 9.944000 # Ta 
151 1 2 0.000000 17.375118 4.027381 0.000000 # Ta 
152 1 2 0.000000 17.375118 4.027381 14.916000 # Ta 
153 1 2 0.000000 17.375118 4.027381 4.972000 # Ta 
154 1 2 0.000000 17.375118 4.027381 9.944000 # Ta 
155 1 2 0.000000 17.375118 10.142381 0.000000 # Ta 
156 1 2 0.000000 17.375118 10.142381 14.916000 # Ta 
157 1 2 0.000000 17.375118 10.142381 4.972000 # Ta 
158 1 2 0.000000 17.375118 10.142381 9.944000 # Ta 
159 1 2 0.000000 17.375118 16.257381 0.000000 # Ta 
160 1 2 0.000000 17.375118 16.257381 14.916000 # Ta 
161 1 2 0.000000 17.375118 16.257381 4.972000 # Ta 
162 1 2 0.000000 17.375118 16.257381 9.944000 # Ta 
163 1 2 0.000000 0.969881 4.027381 2.486000 # Ta 
164 1 2 0.000000 0.969881 4.027381 7.458000 # Ta 
165 1 2 0.000000 0.969881 4.027381 12.430000 # Ta 
166 1 2 0.000000 0.969881 10.142381 2.486000 # Ta 
167 1 2 0.000000 0.969881 10.142381 7.458000 # Ta 
168 1 2 0.000000 0.969881 10.142381 12.430000 # Ta 
169 1 2 0.000000 0.969881 16.257381 2.486000 # Ta 
170 1 2 0.000000 0.969881 16.257381 7.458000 # Ta 
171 1 2 0.000000 0.969881 16.257381 12.430000 # Ta 
172 1 2 0.000000 7.084881 4.027381 2.486000 # Ta 
173 1 2 0.000000 7.084881 4.027381 7.458000 # Ta 
174 1 2 0.000000 7.084881 4.027381 12.430000 # Ta 
175 1 2 0.000000 7.084881 10.142381 2.486000 # Ta 
176 1 2 0.000000 7.084881 10.142381 7.458000 # Ta 
177 1 2 0.000000 7.084881 10.142381 12.430000 # Ta 
178 1 2 0.000000 7.084881 16.257381 2.486000 # Ta 
179 1 2 0.000000 7.084881 16.257381 7.458000 # Ta 
180 1 2 0.000000 7.084881 16.257381 12.430000 # Ta 
181 1 2 0.000000 13.199881 4.027381 2.486000 # Ta 
182 1 2 0.000000 13.199881 4.027381 7.458000 # Ta 
183 1 2 0.000000 13.199881 4.027381 12.430000 # Ta 
184 1 2 0.000000 13.199881 10.142381 2.486000 # Ta 
185 1 2 0.000000 13.199881 10.142381 7.458000 # Ta 
186 1 2 0.000000 13.199881 10.142381 12.430000 # Ta 
187 1 2 0.000000 13.199881 16.257381 2.486000 # Ta 
188 1 2 0.000000 13.199881 16.257381 7.458000 # Ta 
189 1 2 0.000000 13.199881 16.257381 12.430000 # Ta 
190 1 2 0.000000 5.145119 2.087619 2.486000 # Ta 
191 1 2 0.000000 5.145119 2.087619 7.458000 # Ta 
192 1 2 0.000000 5.145119 2.087619 12.430000 # Ta 
193 1 2 0.000000 5.145119 8.202618 2.486000 # Ta 
194 1 2 0.000000 5.145119 8.202618 7.458000 # Ta 
195 1 2 0.000000 5.145119 8.202618 12.430000 # Ta 
196 1 2 0.000000 5.145119 14.317618 2.486000 # Ta 
197 1 2 0.000000 5.145119 14.317618 7.458000 # Ta 
198 1 2 0.000000 5.145119 14.317618 12.430000 # Ta 
199 1 2 0.000000 11.260119 2.087619 2.486000 # Ta 
200 1 2 0.000000 11.260119 2.087619 7.458000 # Ta 
201 1 2 0.000000 11.260119 2.087619 12.430000 # Ta 
202 1 2 0.000000 11.260119 8.202618 2.486000 # Ta 
203 1 2 0.000000 11.260119 8.202618 7.458000 # Ta 
204 1 2 0.000000 11.260119 8.202618 12.430000 # Ta 
205 1 2 0.000000 11.260119 14.317618 2.486000 # Ta 
206 1 2 0.000000 11.260119 14.317618 7.458000 # Ta 
207 1 2 0.000000 11.260119 14.317618 12.430000 # Ta 
208 1 2 0.000000 17.375118 2.087619 2.486000 # Ta 
209 1 2 0.000000 17.375118 2.087619 7.458000 # Ta 
210 1 2 0.000000 17.375118 2.087619 12.430000 # Ta 
211 1 2 0.000000 17.375118 8.202618 2.486000 # Ta 
212 1 2 0.000000 17.375118 8.202618 7.458000 # Ta 
213 1 2 0.000000 17.375118 8.202618 12.430000 # Ta 
214 1 2 0.000000 17.375118 14.317618 2.486000 # Ta 
215 1 2 0.000000 17.375118 14.317618 7.458000 # Ta 
216 1 2 0.000000 17.375118 14.317618 12.430000 # Ta 
217 1 2 0.000000 0.969881 2.087619 0.000000 # Ta 
218 1 2 0.000000 0.969881 2.087619 14.916000 # Ta 
219 1 2 0.000000 0.969881 2.087619 4.972000 # Ta 
220 1 2 0.000000 0.969881 2.087619 9.944000 # Ta 
221 1 2 0.000000 0.969881 8.202618 0.000000 # Ta 
222 1 2 0.000000 0.969881 8.202618 14.916000 # Ta 
223 1 2 0.000000 0.969881 8.202618 4.972000 # Ta 
224 1 2 0.000000 0.969881 8.202618 9.944000 # Ta 
225 1 2 0.000000 0.969881 14.317618 0.000000 # Ta 
226 1 2 0.000000 0.969881 14.317618 14.916000 # Ta 
227 1 2 0.000000 0.969881 14.317618 4.972000 # Ta 
228 1 2 0.000000 0.969881 14.317618 9.944000 # Ta 
229 1 2 0.000000 7.084881 2.087619 0.000000 # Ta 
230 1 2 0.000000 7.084881 2.087619 14.916000 # Ta 
231 1 2 0.000000 7.084881 2.087619 4.972000 # Ta 
232 1 2 0.000000 7.084881 2.087619 9.944000 # Ta 
233 1 2 0.000000 7.084881 8.202618 0.000000 # Ta 
234 1 2 0.000000 7.084881 8.202618 14.916000 # Ta 
235 1 2 0.000000 7.084881 8.202618 4.972000 # Ta 
236 1 2 0.000000 7.084881 8.202618 9.944000 # Ta 
237 1 2 0.000000 7.084881 14.317618 0.000000 # Ta 
238 1 2 0.000000 7.084881 14.317618 14.916000 # Ta 
239 1 2 0.000000 7.084881 14.317618 4.972000 # Ta 
240 1 2 0.000000 7.084881 14.317618 9.944000 # Ta 
241 1 2 0.000000 13.199881 2.087619 0.000000 # Ta 
242 1 2 0.000000 13.199881 2.087619 14.916000 # Ta 
243 1 2 0.000000 13.199881 2.087619 4.972000 # Ta 
244 1 2 0.000000 13.199881 2.087619 9.944000 # Ta 
245 1 2 0.000000 13.199881 8.202618 0.000000 # Ta 
246 1 2 0.000000 13.199881 8.202618 14.916000 # Ta 
247 1 2 0.000000 13.199881 8.202618 4.972000 # Ta 
248 1 2 0.000000 13.199881 8.202618 9.944000 # Ta 
249 1 2 0.000000 13.199881 14.317618 0.000000 # Ta 
250 1 2 0.000000 13.199881 14.317618 14.916000 # Ta 
251 1 2 0.000000 13.199881 14.317618 4.972000 # Ta 
252 1 2 0.000000 13.199881 14.317618 9.944000 # Ta 
253 1 1 0.000000 0.000000 0.000000 1.243000 # Co 
254 1 1 0.000000 0.000000 18.344999 1.243000 # Co 
255 1 1 0.000000 18.344999 0.000000 1.243000 # Co 
256 1 1 0.000000 18.344999 18.344999 1.243000 # Co 
257 1 1 0.000000 0.000000 0.000000 6.215000 # Co 
258 1 1 0.000000 0.000000 18.344999 6.215000 # Co 
259 1 1 0.000000 18.344999 0.000000 6.215000 # Co 
260 1 1 0.000000 18.344999 18.344999 6.215000 # Co 
261 1 1 0.000000 0.000000 0.000000 11.187000 # Co 
262 1 1 0.000000 0.000000 18.344999 11.187000 # Co 
263 1 1 0.000000 18.344999 0.000000 11.187000 # Co 
264 1 1 0.000000 18.344999 18.344999 11.187000 # Co 
265 1 1 0.000000 0.000000 6.115000 1.243000 # Co 
266 1 1 0.000000 18.344999 6.115000 1.243000 # Co 
267 1 1 0.000000 0.000000 6.115000 6.215000 # Co 
268 1 1 0.000000 18.344999 6.115000 6.215000 # Co 
269 1 1 0.000000 0.000000 6.115000 11.187000 # Co 
270 1 1 0.000000 18.344999 6.115000 11.187000 # Co 
271 1 1 0.000000 0.000000 12.230000 1.243000 # Co 
272 1 1 0.000000 18.344999 12.230000 1.243000 # Co 
273 1 1 0.000000 0.000000 12.230000 6.215000 # Co 
274 1 1 0.000000 18.344999 12.230000 6.215000 # Co 
275 1 1 0.000000 0.000000 12.230000 11.187000 # Co 
276 1 1 0.000000 18.344999 12.230000 11.187000 # Co 
277 1 1 0.000000 6.115000 0.000000 1.243000 # Co 
278 1 1 0.000000 6.115000 18.344999 1.243000 # Co 
279 1 1 0.000000 6.115000 0.000000 6.215000 # Co 
280 1 1 0.000000 6.115000 18.344999 6.215000 # Co 
281 1 1 0.000000 6.115000 0.000000 11.187000 # Co 
282 1 1 0.000000 6.115000 18.344999 11.187000 # Co 
283 1 1 0.000000 6.115000 6.115000 1.243000 # Co 
284 1 1 0.000000 6.115000 6.115000 6.215000 # Co 
285 1 1 0.000000 6.115000 6.115000 11.187000 # Co 
286 1 1 0.000000 6.115000 12.230000 1.243000 # Co 
287 1 1 0.000000 6.115000 12.230000 6.215000 # Co 
288 1 1 0.000000 6.115000 12.230000 11.187000 # Co 
289 1 1 0.000000 12.230000 0.000000 1.243000 # Co 
290 1 1 0.000000 12.230000 18.344999 1.243000 # Co 
291 1 1 0.000000 12.230000 0.000000 6.215000 # Co 
292 1 1 0.000000 12.230000 18.344999 6.215000 # Co 
293 1 1 0.000000 12.230000 0.000000 11.187000 # Co 
294 1 1 0.000000 12.230000 18.344999 11.187000 # Co 
295 1 1 0.000000 12.230000 6.115000 1.243000 # Co 
296 1 1 0.000000 12.230000 6.115000 6.215000 # Co 
297 1 1 0.000000 12.230000 6.115000 11.187000 # Co 
298 1 1 0.000000 12.230000 12.230000 1.243000 # Co 
299 1 1 0.000000 12.230000 12.230000 6.215000 # Co 
300 1 1 0.000000 12.230000 12.230000 11.187000 # Co 
301 1 1 0.000000 0.000000 0.000000 3.729000 # Co 
302 1 1 0.000000 0.000000 18.344999 3.729000 # Co 
303 1 1 0.000000 18.344999 0.000000 3.729000 # Co 
304 1 1 0.000000 18.344999 18.344999 3.729000 # Co 
305 1 1 0.000000 0.000000 0.000000 8.701000 # Co 
306 1 1 0.000000 0.000000 18.344999 8.701000 # Co 
307 1 1 0.000000 18.344999 0.000000 8.701000 # Co 
308 1 1 0.000000 18.344999 18.344999 8.701000 # Co 
309 1 1 0.000000 0.000000 0.000000 13.673000 # Co 
310 1 1 0.000000 0.000000 18.344999 13.673000 # Co 
311 1 1 0.000000 18.344999 0.000000 13.673000 # Co 
312 1 1 0.000000 18.344999 18.344999 13.673000 # Co 
313 1 1 0.000000 0.000000 6.115000 3.729000 # Co 
314 1 1 0.000000 18.344999 6.115000 3.729000 # Co 
315 1 1 0.000000 0.000000 6.115000 8.701000 # Co 
316 1 1 0.000000 18.344999 6.115000 8.701000 # Co 
317 1 1 0.000000 0.000000 6.115000 13.673000 # Co 
318 1 1 0.000000 18.344999 6.115000 13.673000 # Co 
319 1 1 0.000000 0.000000 12.230000 3.729000 # Co 
320 1 1 0.000000 18.344999 12.230000 3.729000 # Co 
321 1 1 0.000000 0.000000 12.230000 8.701000 # Co 
322 1 1 0.000000 18.344999 12.230000 8.701000 # Co 
323 1 1 0.000000 0.000000 12.230000 13.673000 # Co 
324 1 1 0.000000 18.344999 12.230000 13.673000 # Co 
325 1 1 0.000000 6.115000 0.000000 3.729000 # Co 
326 1 1 0.000000 6.115000 18.344999 3.729000 # Co 
327 1 1 0.000000 6.115000 0.000000 8.701000 # Co 
328 1 1 0.000000 6.115000 18.344999 8.701000 # Co 
329 1 1 0.000000 6.115000 0.000000 13.673000 # Co 
330 1 1 0.000000 6.115000 18.344999 13.673000 # Co 
331 1 1 0.000000 6.115000 6.115000 3.729000 # Co 
332 1 1 0.000000 6.115000 6.115000 8.701000 # Co 
333 1 1 0.000000 6.115000 6.115000 13.673000 # Co 
334 1 1 0.000000 6.115000 12.230000 3.729000 # Co 
335 1 1 0.000000 6.115000 12.230000 8.701000 # Co 
336 1 1 0.000000 6.115000 12.230000 13.673000 # Co 
337 1 1 0.000000 12.230000 0.000000 3.729000 # Co 
338 1 1 0.000000 12.230000 18.344999 3.729000 # Co 
339 1 1 0.000000 12.230000 0.000000 8.701000 # Co 
340 1 1 0.000000 12.230000 18.344999 8.701000 # Co 
341 1 1 0.000000 12.230000 0.000000 13.673000 # Co 
342 1 1 0.000000 12.230000 18.344999 13.673000 # Co 
343 1 1 0.000000 12.230000 6.115000 3.729000 # Co 
344 1 1 0.000000 12.230000 6.115000 8.701000 # Co 
345 1 1 0.000000 12.230000 6.115000 13.673000 # Co 
346 1 1 0.000000 12.230000 12.230000 3.729000 # Co 
347 1 1 0.000000 12.230000 12.230000 8.701000 # Co 
348 1 1 0.000000 12.230000 12.230000 13.673000 # Co 
349 1 1 0.000000 3.057500 3.057500 3.729000 # Co 
350 1 1 0.000000 3.057500 3.057500 8.701000 # Co 
351 1 1 0.000000 3.057500 3.057500 13.673000 # Co 
352 1 1 0.000000 3.057500 9.172500 3.729000 # Co 
353 1 1 0.000000 3.057500 9.172500 8.701000 # Co 
354 1 1 0.000000 3.057500 9.172500 13.673000 # Co 
355 1 1 0.000000 3.057500 15.287500 3.729000 # Co 
356 1 1 0.000000 3.057500 15.287500 8.701000 # Co 
357 1 1 0.000000 3.057500 15.287500 13.673000 # Co 
358 1 1 0.000000 9.172500 3.057500 3.729000 # Co 
359 1 1 0.000000 9.172500 3.057500 8.701000 # Co 
360 1 1 0.000000 9.172500 3.057500 13.673000 # Co 
361 1 1 0.000000 9.172500 9.172500 3.729000 # Co 
362 1 1 0.000000 9.172500 9.172500 8.701000 # Co 
363 1 1 0.000000 9.172500 9.172500 13.673000 # Co 
364 1 1 0.000000 9.172500 15.287500 3.729000 # Co 
365 1 1 0.000000 9.172500 15.287500 8.701000 # Co 
366 1 1 0.000000 9.172500 15.287500 13.673000 # Co 
367 1 1 0.000000 15.287500 3.057500 3.729000 # Co 
368 1 1 0.000000 15.287500 3.057500 8.701000 # Co 
369 1 1 0.000000 15.287500 3.057500 13.673000 # Co 
370 1 1 0.000000 15.287500 9.172500 3.729000 # Co 
371 1 1 0.000000 15.287500 9.172500 8.701000 # Co 
372 1 1 0.000000 15.287500 9.172500 13.673000 # Co 
373 1 1 0.000000 15.287500 15.287500 3.729000 # Co 
374 1 1 0.000000 15.287500 15.287500 8.701000 # Co 
375 1 1 0.000000 15.287500 15.287500 13.673000 # Co 
376 1 1 0.000000 3.057500 3.057500 1.243000 # Co 
377 1 1 0.000000 3.057500 3.057500 6.215000 # Co 
378 1 1 0.000000 3.057500 3.057500 11.187000 # Co 
379 1 1 0.000000 3.057500 9.172500 1.243000 # Co 
380 1 1 0.000000 3.057500 9.172500 6.215000 # Co 
381 1 1 0.000000 3.057500 9.172500 11.187000 # Co 
382 1 1 0.000000 3.057500 15.287500 1.243000 # Co 
383 1 1 0.000000 3.057500 15.287500 6.215000 # Co 
384 1 1 0.000000 3.057500 15.287500 11.187000 # Co 
385 1 1 0.000000 9.172500 3.057500 1.243000 # Co 
386 1 1 0.000000 9.172500 3.057500 6.215000 # Co 
387 1 1 0.000000 9.172500 3.057500 11.187000 # Co 
388 1 1 0.000000 9.172500 9.172500 1.243000 # Co 
389 1 1 0.000000 9.172500 9.172500 6.215000 # Co 
390 1 1 0.000000 9.172500 9.172500 11.187000 # Co 
391 1 1 0.000000 9.172500 15.287500 1.243000 # Co 
392 1 1 0.000000 9.172500 15.287500 6.215000 # Co 
393 1 1 0.000000 9.172500 15.287500 11.187000 # Co 
394 1 1 0.000000 15.287500 3.057500 1.243000 # Co 
395 1 1 0.000000 15.287500 3.057500 6.215000 # Co 
396 1 1 0.000000 15.287500 3.057500 11.187000 # Co 
397 1 1 0.000000 15.287500 9.172500 1.243000 # Co 
398 1 1 0.000000 15.287500 9.172500 6.215000 # Co 
399 1 1 0.000000 15.287500 9.172500 11.187000 # Co 
400 1 1 0.000000 15.287500 15.287500 1.243000 # Co 
401 1 1 0.000000 15.287500 15.287500 6.215000 # Co 
402 1 1 0.000000 15.287500 15.287500 11.187000 # Co 

