ITEM: TIMESTEP
0
ITEM: NUMBER OF ATOMS
402
ITEM: BOX BOUNDS pp pp pp
5.0000000000000000e-01 1.8600000000000001e+01
5.0000000000000000e-01 1.8600000000000001e+01
5.0000000000000000e-01 1.5000000000000000e+01
ITEM: ATOMS id type xs ys zs
1 2 0.0877138 0.0259603 0.136966
163 2 0.0259603 0.194883 0.136966
349 1 0.141298 0.141298 0.22269
376 1 0.141298 0.141298 0.0512414
172 2 0.363806 0.194883 0.136966
190 2 0.256636 0.0877138 0.136966
10 2 0.425559 0.0259603 0.136966
199 2 0.594482 0.0877138 0.136966
358 1 0.479144 0.141298 0.22269
385 1 0.479144 0.141298 0.0512414
19 2 0.763404 0.0259603 0.136966
181 2 0.701651 0.194883 0.136966
208 2 0.932327 0.0877138 0.136966
367 1 0.816989 0.141298 0.22269
394 1 0.816989 0.141298 0.0512414
4 2 0.0877138 0.363806 0.136966
100 2 0.194883 0.256636 0.136966
283 1 0.310221 0.310221 0.0512414
331 1 0.310221 0.310221 0.22269
13 2 0.425559 0.363806 0.136966
109 2 0.532728 0.256636 0.136966
22 2 0.763404 0.363806 0.136966
295 1 0.648066 0.310221 0.0512414
343 1 0.648066 0.310221 0.22269
118 2 0.870574 0.256636 0.136966
265 1 0.972376 0.310221 0.0512414
266 1 0.985912 0.310221 0.0512414
313 1 0.972376 0.310221 0.22269
314 1 0.985912 0.310221 0.22269
103 2 0.194883 0.594482 0.136966
166 2 0.0259603 0.532728 0.136966
352 1 0.141298 0.479144 0.22269
379 1 0.141298 0.479144 0.0512414
175 2 0.363806 0.532728 0.136966
193 2 0.256636 0.425559 0.136966
112 2 0.532728 0.594482 0.136966
202 2 0.594482 0.425559 0.136966
361 1 0.479144 0.479144 0.22269
388 1 0.479144 0.479144 0.0512414
184 2 0.701651 0.532728 0.136966
121 2 0.870574 0.594482 0.136966
211 2 0.932327 0.425559 0.136966
370 1 0.816989 0.479144 0.22269
397 1 0.816989 0.479144 0.0512414
7 2 0.0877138 0.701651 0.136966
196 2 0.256636 0.763404 0.136966
286 1 0.310221 0.648066 0.0512414
334 1 0.310221 0.648066 0.22269
16 2 0.425559 0.701651 0.136966
205 2 0.594482 0.763404 0.136966
25 2 0.763404 0.701651 0.136966
298 1 0.648066 0.648066 0.0512414
346 1 0.648066 0.648066 0.22269
214 2 0.932327 0.763404 0.136966
271 1 0.972376 0.648066 0.0512414
272 1 0.985912 0.648066 0.0512414
319 1 0.972376 0.648066 0.22269
320 1 0.985912 0.648066 0.22269
106 2 0.194883 0.932327 0.136966
169 2 0.0259603 0.870574 0.136966
355 1 0.141298 0.816989 0.22269
382 1 0.141298 0.816989 0.0512414
178 2 0.363806 0.870574 0.136966
277 1 0.310221 0.972376 0.0512414
278 1 0.310221 0.985912 0.0512414
325 1 0.310221 0.972376 0.22269
326 1 0.310221 0.985912 0.22269
115 2 0.532728 0.932327 0.136966
364 1 0.479144 0.816989 0.22269
391 1 0.479144 0.816989 0.0512414
187 2 0.701651 0.870574 0.136966
289 1 0.648066 0.972376 0.0512414
290 1 0.648066 0.985912 0.0512414
337 1 0.648066 0.972376 0.22269
338 1 0.648066 0.985912 0.22269
124 2 0.870574 0.932327 0.136966
253 1 0.972376 0.972376 0.0512414
254 1 0.972376 0.985912 0.0512414
255 1 0.985912 0.972376 0.0512414
256 1 0.985912 0.985912 0.0512414
301 1 0.972376 0.972376 0.22269
302 1 0.972376 0.985912 0.22269
303 1 0.985912 0.972376 0.22269
304 1 0.985912 0.985912 0.22269
373 1 0.816989 0.816989 0.22269
400 1 0.816989 0.816989 0.0512414
2 2 0.0877138 0.0259603 0.479862
30 2 0.194883 0.0259603 0.308414
164 2 0.0259603 0.194883 0.479862
219 2 0.0259603 0.0877138 0.308414
377 1 0.141298 0.141298 0.394138
129 2 0.256636 0.194883 0.308414
173 2 0.363806 0.194883 0.479862
191 2 0.256636 0.0877138 0.479862
231 2 0.363806 0.0877138 0.308414
11 2 0.425559 0.0259603 0.479862
42 2 0.532728 0.0259603 0.308414
141 2 0.594482 0.194883 0.308414
200 2 0.594482 0.0877138 0.479862
386 1 0.479144 0.141298 0.394138
20 2 0.763404 0.0259603 0.479862
182 2 0.701651 0.194883 0.479862
243 2 0.701651 0.0877138 0.308414
54 2 0.870574 0.0259603 0.308414
153 2 0.932327 0.194883 0.308414
209 2 0.932327 0.0877138 0.479862
395 1 0.816989 0.141298 0.394138
5 2 0.0877138 0.363806 0.479862
34 2 0.194883 0.363806 0.308414
66 2 0.0877138 0.256636 0.308414
101 2 0.194883 0.256636 0.479862
284 1 0.310221 0.310221 0.394138
14 2 0.425559 0.363806 0.479862
46 2 0.532728 0.363806 0.308414
78 2 0.425559 0.256636 0.308414
110 2 0.532728 0.256636 0.479862
23 2 0.763404 0.363806 0.479862
90 2 0.763404 0.256636 0.308414
296 1 0.648066 0.310221 0.394138
58 2 0.870574 0.363806 0.308414
119 2 0.870574 0.256636 0.479862
267 1 0.972376 0.310221 0.394138
268 1 0.985912 0.310221 0.394138
70 2 0.0877138 0.594482 0.308414
104 2 0.194883 0.594482 0.479862
167 2 0.0259603 0.532728 0.479862
223 2 0.0259603 0.425559 0.308414
380 1 0.141298 0.479144 0.394138
133 2 0.256636 0.532728 0.308414
176 2 0.363806 0.532728 0.479862
194 2 0.256636 0.425559 0.479862
235 2 0.363806 0.425559 0.308414
82 2 0.425559 0.594482 0.308414
113 2 0.532728 0.594482 0.479862
145 2 0.594482 0.532728 0.308414
203 2 0.594482 0.425559 0.479862
389 1 0.479144 0.479144 0.394138
94 2 0.763404 0.594482 0.308414
185 2 0.701651 0.532728 0.479862
247 2 0.701651 0.425559 0.308414
122 2 0.870574 0.594482 0.479862
157 2 0.932327 0.532728 0.308414
212 2 0.932327 0.425559 0.479862
398 1 0.816989 0.479144 0.394138
8 2 0.0877138 0.701651 0.479862
38 2 0.194883 0.701651 0.308414
227 2 0.0259603 0.763404 0.308414
197 2 0.256636 0.763404 0.479862
239 2 0.363806 0.763404 0.308414
287 1 0.310221 0.648066 0.394138
17 2 0.425559 0.701651 0.479862
50 2 0.532728 0.701651 0.308414
206 2 0.594482 0.763404 0.479862
26 2 0.763404 0.701651 0.479862
251 2 0.701651 0.763404 0.308414
299 1 0.648066 0.648066 0.394138
62 2 0.870574 0.701651 0.308414
215 2 0.932327 0.763404 0.479862
273 1 0.972376 0.648066 0.394138
274 1 0.985912 0.648066 0.394138
74 2 0.0877138 0.932327 0.308414
107 2 0.194883 0.932327 0.479862
170 2 0.0259603 0.870574 0.479862
383 1 0.141298 0.816989 0.394138
137 2 0.256636 0.870574 0.308414
179 2 0.363806 0.870574 0.479862
279 1 0.310221 0.972376 0.394138
280 1 0.310221 0.985912 0.394138
86 2 0.425559 0.932327 0.308414
116 2 0.532728 0.932327 0.479862
149 2 0.594482 0.870574 0.308414
392 1 0.479144 0.816989 0.394138
98 2 0.763404 0.932327 0.308414
188 2 0.701651 0.870574 0.479862
291 1 0.648066 0.972376 0.394138
292 1 0.648066 0.985912 0.394138
125 2 0.870574 0.932327 0.479862
161 2 0.932327 0.870574 0.308414
257 1 0.972376 0.972376 0.394138
258 1 0.972376 0.985912 0.394138
259 1 0.985912 0.972376 0.394138
260 1 0.985912 0.985912 0.394138
401 1 0.816989 0.816989 0.394138
31 2 0.194883 0.0259603 0.65131
220 2 0.0259603 0.0877138 0.65131
350 1 0.141298 0.141298 0.565586
378 1 0.141298 0.141298 0.737034
130 2 0.256636 0.194883 0.65131
232 2 0.363806 0.0877138 0.65131
43 2 0.532728 0.0259603 0.65131
142 2 0.594482 0.194883 0.65131
359 1 0.479144 0.141298 0.565586
387 1 0.479144 0.141298 0.737034
244 2 0.701651 0.0877138 0.65131
55 2 0.870574 0.0259603 0.65131
154 2 0.932327 0.194883 0.65131
368 1 0.816989 0.141298 0.565586
396 1 0.816989 0.141298 0.737034
35 2 0.194883 0.363806 0.65131
67 2 0.0877138 0.256636 0.65131
285 1 0.310221 0.310221 0.737034
332 1 0.310221 0.310221 0.565586
47 2 0.532728 0.363806 0.65131
79 2 0.425559 0.256636 0.65131
91 2 0.763404 0.256636 0.65131
297 1 0.648066 0.310221 0.737034
344 1 0.648066 0.310221 0.565586
59 2 0.870574 0.363806 0.65131
269 1 0.972376 0.310221 0.737034
270 1 0.985912 0.310221 0.737034
315 1 0.972376 0.310221 0.565586
316 1 0.985912 0.310221 0.565586
71 2 0.0877138 0.594482 0.65131
224 2 0.0259603 0.425559 0.65131
353 1 0.141298 0.479144 0.565586
381 1 0.141298 0.479144 0.737034
134 2 0.256636 0.532728 0.65131
236 2 0.363806 0.425559 0.65131
83 2 0.425559 0.594482 0.65131
146 2 0.594482 0.532728 0.65131
362 1 0.479144 0.479144 0.565586
390 1 0.479144 0.479144 0.737034
95 2 0.763404 0.594482 0.65131
248 2 0.701651 0.425559 0.65131
158 2 0.932327 0.532728 0.65131
371 1 0.816989 0.479144 0.565586
399 1 0.816989 0.479144 0.737034
39 2 0.194883 0.701651 0.65131
228 2 0.0259603 0.763404 0.65131
240 2 0.363806 0.763404 0.65131
288 1 0.310221 0.648066 0.737034
335 1 0.310221 0.648066 0.565586
51 2 0.532728 0.701651 0.65131
252 2 0.701651 0.763404 0.65131
300 1 0.648066 0.648066 0.737034
347 1 0.648066 0.648066 0.565586
63 2 0.870574 0.701651 0.65131
275 1 0.972376 0.648066 0.737034
276 1 0.985912 0.648066 0.737034
321 1 0.972376 0.648066 0.565586
322 1 0.985912 0.648066 0.565586
75 2 0.0877138 0.932327 0.65131
356 1 0.141298 0.816989 0.565586
384 1 0.141298 0.816989 0.737034
138 2 0.256636 0.870574 0.65131
281 1 0.310221 0.972376 0.737034
282 1 0.310221 0.985912 0.737034
327 1 0.310221 0.972376 0.565586
328 1 0.310221 0.985912 0.565586
87 2 0.425559 0.932327 0.65131
150 2 0.594482 0.870574 0.65131
365 1 0.479144 0.816989 0.565586
393 1 0.479144 0.816989 0.737034
99 2 0.763404 0.932327 0.65131
293 1 0.648066 0.972376 0.737034
294 1 0.648066 0.985912 0.737034
339 1 0.648066 0.972376 0.565586
340 1 0.648066 0.985912 0.565586
162 2 0.932327 0.870574 0.65131
261 1 0.972376 0.972376 0.737034
262 1 0.972376 0.985912 0.737034
263 1 0.985912 0.972376 0.737034
264 1 0.985912 0.985912 0.737034
305 1 0.972376 0.972376 0.565586
306 1 0.972376 0.985912 0.565586
307 1 0.985912 0.972376 0.565586
308 1 0.985912 0.985912 0.565586
374 1 0.816989 0.816989 0.565586
402 1 0.816989 0.816989 0.737034
3 2 0.0877138 0.0259603 0.822759
28 2 0.194883 0.0259603 0.965517
29 2 0.194883 0.0259603 0.994207
165 2 0.0259603 0.194883 0.822759
217 2 0.0259603 0.0877138 0.965517
218 2 0.0259603 0.0877138 0.994207
351 1 0.141298 0.141298 0.908483
127 2 0.256636 0.194883 0.965517
128 2 0.256636 0.194883 0.994207
174 2 0.363806 0.194883 0.822759
192 2 0.256636 0.0877138 0.822759
229 2 0.363806 0.0877138 0.965517
230 2 0.363806 0.0877138 0.994207
12 2 0.425559 0.0259603 0.822759
40 2 0.532728 0.0259603 0.965517
41 2 0.532728 0.0259603 0.994207
139 2 0.594482 0.194883 0.965517
140 2 0.594482 0.194883 0.994207
201 2 0.594482 0.0877138 0.822759
360 1 0.479144 0.141298 0.908483
21 2 0.763404 0.0259603 0.822759
183 2 0.701651 0.194883 0.822759
241 2 0.701651 0.0877138 0.965517
242 2 0.701651 0.0877138 0.994207
52 2 0.870574 0.0259603 0.965517
53 2 0.870574 0.0259603 0.994207
151 2 0.932327 0.194883 0.965517
152 2 0.932327 0.194883 0.994207
210 2 0.932327 0.0877138 0.822759
369 1 0.816989 0.141298 0.908483
6 2 0.0877138 0.363806 0.822759
32 2 0.194883 0.363806 0.965517
33 2 0.194883 0.363806 0.994207
64 2 0.0877138 0.256636 0.965517
65 2 0.0877138 0.256636 0.994207
102 2 0.194883 0.256636 0.822759
333 1 0.310221 0.310221 0.908483
15 2 0.425559 0.363806 0.822759
44 2 0.532728 0.363806 0.965517
45 2 0.532728 0.363806 0.994207
76 2 0.425559 0.256636 0.965517
77 2 0.425559 0.256636 0.994207
111 2 0.532728 0.256636 0.822759
24 2 0.763404 0.363806 0.822759
88 2 0.763404 0.256636 0.965517
89 2 0.763404 0.256636 0.994207
345 1 0.648066 0.310221 0.908483
56 2 0.870574 0.363806 0.965517
57 2 0.870574 0.363806 0.994207
120 2 0.870574 0.256636 0.822759
317 1 0.972376 0.310221 0.908483
318 1 0.985912 0.310221 0.908483
68 2 0.0877138 0.594482 0.965517
69 2 0.0877138 0.594482 0.994207
105 2 0.194883 0.594482 0.822759
168 2 0.0259603 0.532728 0.822759
221 2 0.0259603 0.425559 0.965517
222 2 0.0259603 0.425559 0.994207
354 1 0.141298 0.479144 0.908483
131 2 0.256636 0.532728 0.965517
132 2 0.256636 0.532728 0.994207
177 2 0.363806 0.532728 0.822759
195 2 0.256636 0.425559 0.822759
233 2 0.363806 0.425559 0.965517
234 2 0.363806 0.425559 0.994207
80 2 0.425559 0.594482 0.965517
81 2 0.425559 0.594482 0.994207
114 2 0.532728 0.594482 0.822759
143 2 0.594482 0.532728 0.965517
144 2 0.594482 0.532728 0.994207
204 2 0.594482 0.425559 0.822759
363 1 0.479144 0.479144 0.908483
92 2 0.763404 0.594482 0.965517
93 2 0.763404 0.594482 0.994207
186 2 0.701651 0.532728 0.822759
245 2 0.701651 0.425559 0.965517
246 2 0.701651 0.425559 0.994207
123 2 0.870574 0.594482 0.822759
155 2 0.932327 0.532728 0.965517
156 2 0.932327 0.532728 0.994207
213 2 0.932327 0.425559 0.822759
372 1 0.816989 0.479144 0.908483
9 2 0.0877138 0.701651 0.822759
36 2 0.194883 0.701651 0.965517
37 2 0.194883 0.701651 0.994207
225 2 0.0259603 0.763404 0.965517
226 2 0.0259603 0.763404 0.994207
198 2 0.256636 0.763404 0.822759
237 2 0.363806 0.763404 0.965517
238 2 0.363806 0.763404 0.994207
336 1 0.310221 0.648066 0.908483
18 2 0.425559 0.701651 0.822759
48 2 0.532728 0.701651 0.965517
49 2 0.532728 0.701651 0.994207
207 2 0.594482 0.763404 0.822759
27 2 0.763404 0.701651 0.822759
249 2 0.701651 0.763404 0.965517
250 2 0.701651 0.763404 0.994207
348 1 0.648066 0.648066 0.908483
60 2 0.870574 0.701651 0.965517
61 2 0.870574 0.701651 0.994207
216 2 0.932327 0.763404 0.822759
323 1 0.972376 0.648066 0.908483
324 1 0.985912 0.648066 0.908483
72 2 0.0877138 0.932327 0.965517
73 2 0.0877138 0.932327 0.994207
108 2 0.194883 0.932327 0.822759
171 2 0.0259603 0.870574 0.822759
357 1 0.141298 0.816989 0.908483
135 2 0.256636 0.870574 0.965517
136 2 0.256636 0.870574 0.994207
180 2 0.363806 0.870574 0.822759
329 1 0.310221 0.972376 0.908483
330 1 0.310221 0.985912 0.908483
84 2 0.425559 0.932327 0.965517
85 2 0.425559 0.932327 0.994207
117 2 0.532728 0.932327 0.822759
147 2 0.594482 0.870574 0.965517
148 2 0.594482 0.870574 0.994207
366 1 0.479144 0.816989 0.908483
96 2 0.763404 0.932327 0.965517
97 2 0.763404 0.932327 0.994207
189 2 0.701651 0.870574 0.822759
341 1 0.648066 0.972376 0.908483
342 1 0.648066 0.985912 0.908483
126 2 0.870574 0.932327 0.822759
159 2 0.932327 0.870574 0.965517
160 2 0.932327 0.870574 0.994207
309 1 0.972376 0.972376 0.908483
310 1 0.972376 0.985912 0.908483
311 1 0.985912 0.972376 0.908483
312 1 0.985912 0.985912 0.908483
375 1 0.816989 0.816989 0.908483
ITEM: TIMESTEP
100
ITEM: NUMBER OF ATOMS
402
ITEM: BOX BOUNDS pp pp pp
5.0000000000000000e-01 1.8600000000000001e+01
5.0000000000000000e-01 1.8600000000000001e+01
5.0000000000000000e-01 1.5000000000000000e+01
ITEM: ATOMS id type xs ys zs
1 2 0.0719683 0.0147055 0.184148
163 2 0.011592 0.258055 0.190104
349 1 0.122658 0.126505 0.178762
376 1 0.172768 0.184602 0.0497596
172 2 0.368996 0.205797 0.192015
190 2 0.290379 0.0920655 0.191131
10 2 0.434651 0.0481438 0.213448
199 2 0.569589 0.132215 0.186441
358 1 0.463759 0.16609 0.27016
385 1 0.563396 0.147509 0.0466185
19 2 0.704174 0.0066318 0.189489
181 2 0.729525 0.1847 0.198721
208 2 0.944544 0.0698044 0.195606
367 1 0.835777 0.120693 0.180958
394 1 0.788252 0.158601 0.0441758
4 2 0.13256 0.391005 0.184541
100 2 0.194158 0.228375 0.191287
283 1 0.377556 0.309974 0.0464282
331 1 0.303275 0.304008 0.241083
13 2 0.410428 0.357995 0.187029
109 2 0.53111 0.269908 0.205976
22 2 0.750901 0.366721 0.184875
295 1 0.640732 0.375189 0.0466222
343 1 0.654749 0.301835 0.241353
118 2 0.870422 0.286914 0.192194
265 1 0.890505 0.304635 0.0472464
266 1 -0.00215351 0.264803 0.046697
313 1 0.948387 0.333106 0.281588
314 1 0.0207666 0.395797 0.206239
103 2 0.207402 0.591558 0.184923
166 2 0.0463658 0.520854 0.207862
352 1 0.166281 0.499274 0.267088
379 1 0.14581 0.402803 0.0442433
175 2 0.35835 0.54739 0.186949
193 2 0.267667 0.428318 0.201167
112 2 0.547771 0.600207 0.186997
202 2 0.59989 0.410854 0.186941
361 1 0.479096 0.479115 0.214925
388 1 0.479095 0.479154 0.0589185
184 2 0.690577 0.529958 0.201152
121 2 0.825661 0.567298 0.184544
211 2 0.911881 0.43754 0.207828
370 1 0.791984 0.459046 0.267108
397 1 0.81248 0.555508 0.0442317
7 2 0.0878015 0.671463 0.192283
196 2 0.228757 0.773653 0.198738
286 1 0.317474 0.583141 0.0466748
334 1 0.303538 0.6564 0.241442
16 2 0.42715 0.688384 0.205976
205 2 0.589303 0.752406 0.191817
25 2 0.764167 0.729942 0.191318
298 1 0.580747 0.648279 0.046448
346 1 0.654986 0.654209 0.241074
214 2 0.946693 0.700391 0.190112
271 1 0.960416 0.693547 0.0466915
272 1 0.067672 0.653633 0.0472837
319 1 0.937515 0.562641 0.206273
320 1 0.00983338 0.625369 0.281704
106 2 0.254221 0.951675 0.189476
169 2 0.0137318 0.888493 0.195631
355 1 0.1224 0.837494 0.180986
382 1 0.170087 0.799683 0.044274
178 2 0.388733 0.826051 0.186479
277 1 0.259681 0.960297 0.0472175
278 1 0.314645 0.0668891 0.0483087
325 1 0.392016 0.937857 0.21105
326 1 0.329282 0.0110275 0.283794
115 2 0.523698 0.910175 0.213501
364 1 0.494582 0.792153 0.270105
391 1 0.394897 0.810771 0.0466096
187 2 0.667852 0.866174 0.191034
289 1 0.643759 0.891357 0.0482997
290 1 0.69869 -0.00194516 0.0472378
337 1 0.629161 0.947243 0.283946
338 1 0.566417 0.0204103 0.211122
124 2 0.886314 0.943609 0.184198
253 1 0.892969 0.945082 0.0427152
254 1 0.953869 0.0487435 0.0482791
255 1 0.00447447 0.909663 0.0482902
256 1 0.0654015 0.0132927 0.0426795
301 1 0.907436 0.929932 0.331986
302 1 0.936525 0.0346409 0.346058
303 1 0.02182 0.923656 0.346054
304 1 0.0508328 0.0283876 0.331942
373 1 0.835613 0.831859 0.178775
400 1 0.785653 0.773816 0.0497354
2 2 0.0317497 0.0473975 0.479165
30 2 0.181346 0.0779103 0.294959
164 2 0.0486864 0.206411 0.478615
219 2 0.0392036 0.146659 0.295316
377 1 0.141139 0.181698 0.374401
129 2 0.259852 0.212096 0.338683
173 2 0.355567 0.211459 0.48006
191 2 0.191997 0.109378 0.481408
231 2 0.353494 0.105125 0.369447
11 2 0.4144 0.0218121 0.481377
42 2 0.517458 0.0435924 0.344292
141 2 0.588487 0.208852 0.339109
200 2 0.583107 0.107661 0.48042
386 1 0.472421 0.1508 0.409853
20 2 0.729771 0.0372 0.481268
182 2 0.691546 0.204008 0.478662
243 2 0.675235 0.0949073 0.319206
54 2 0.809954 0.0398552 0.295637
153 2 0.877046 0.178353 0.297822
209 2 0.871912 0.0661324 0.481484
395 1 0.784302 0.143296 0.397833
5 2 0.108404 0.372466 0.47918
34 2 0.210909 0.370833 0.336429
66 2 0.0998332 0.285375 0.316104
101 2 0.200355 0.265335 0.481123
284 1 0.317794 0.326086 0.399172
14 2 0.421724 0.376811 0.479865
46 2 0.52744 0.375885 0.327428
78 2 0.421738 0.266887 0.345067
110 2 0.526225 0.266389 0.47982
23 2 0.750542 0.361147 0.479516
90 2 0.747437 0.2607 0.336982
296 1 0.634181 0.318601 0.399773
58 2 0.853637 0.360986 0.358541
119 2 0.863343 0.234254 0.478046
267 1 0.950891 0.249199 0.375265
268 1 0.0146485 0.332969 0.403498
70 2 0.1046 0.597325 0.358588
104 2 0.207711 0.597165 0.479517
167 2 0.0236824 0.54581 0.478168
223 2 0.0420895 0.437538 0.34405
380 1 0.152249 0.478724 0.4064
133 2 0.266255 0.537585 0.341983
176 2 0.376312 0.536495 0.479846
194 2 0.266736 0.431598 0.47997
235 2 0.375143 0.431054 0.326108
82 2 0.430803 0.582375 0.327445
113 2 0.536499 0.581429 0.479862
145 2 0.5831 0.527189 0.326105
203 2 0.581952 0.421746 0.479847
389 1 0.479122 0.479134 0.398782
94 2 0.74735 0.587405 0.336406
185 2 0.69148 0.52663 0.479972
247 2 0.691975 0.420693 0.341984
122 2 0.849834 0.58582 0.479193
157 2 0.916188 0.520721 0.344075
212 2 0.934581 0.41242 0.478161
398 1 0.805991 0.479554 0.406418
8 2 0.0952255 0.724078 0.478047
38 2 0.210867 0.6976 0.336942
227 2 0.0811165 0.779934 0.297964
197 2 0.266802 0.754306 0.478661
239 2 0.369824 0.749427 0.339115
287 1 0.324106 0.639667 0.399801
17 2 0.432085 0.691844 0.479817
50 2 0.536533 0.691342 0.34505
206 2 0.60275 0.746767 0.480056
26 2 0.757824 0.692879 0.481104
251 2 0.69835 0.746137 0.338651
299 1 0.640427 0.632109 0.399134
62 2 0.858546 0.672786 0.316118
215 2 0.909242 0.752221 0.478611
273 1 0.94361 0.625248 0.403562
274 1 0.00735283 0.709122 0.375816
74 2 0.148375 0.91839 0.295533
107 2 0.228613 0.921123 0.48127
170 2 0.0864796 0.89216 0.481456
383 1 0.17406 0.814986 0.397799
137 2 0.283113 0.863374 0.319205
179 2 0.37528 0.850647 0.480424
279 1 0.337573 0.945614 0.402034
280 1 0.257937 0.0261386 0.398863
86 2 0.440894 0.914652 0.344284
116 2 0.543948 0.936422 0.481361
149 2 0.604803 0.853064 0.369411
392 1 0.485892 0.807415 0.409813
98 2 0.776816 0.880412 0.294974
188 2 0.767002 0.848706 0.481416
291 1 0.700289 0.931865 0.39937
292 1 0.620819 0.0126473 0.402057
125 2 0.926862 0.911292 0.479178
161 2 0.91902 0.811685 0.295385
257 1 0.817765 0.958611 0.407548
258 1 0.95811 0.137233 0.405345
259 1 1.00009 0.821116 0.4054
260 1 0.140527 0.999578 0.407516
401 1 0.817062 0.776424 0.373969
31 2 0.180814 0.075449 0.667952
220 2 0.0393348 0.144149 0.659327
350 1 0.141328 0.182484 0.586438
378 1 0.116896 0.124241 0.779947
130 2 0.261732 0.211574 0.623403
232 2 0.35543 0.106482 0.592555
43 2 0.518279 0.0445369 0.61703
142 2 0.588197 0.209497 0.622169
359 1 0.474793 0.15271 0.552142
387 1 0.461175 0.166866 0.691936
244 2 0.676937 0.0988936 0.642726
55 2 0.80752 0.0407633 0.669676
154 2 0.875118 0.178871 0.657874
368 1 0.783393 0.143498 0.560397
396 1 0.834865 0.127204 0.78
35 2 0.210122 0.370377 0.621701
67 2 0.0953277 0.287075 0.641536
285 1 0.301781 0.304323 0.720028
332 1 0.31879 0.325711 0.561755
47 2 0.527784 0.37484 0.632818
79 2 0.421758 0.266824 0.616623
91 2 0.746935 0.259668 0.620839
297 1 0.654932 0.3032 0.717176
344 1 0.63387 0.317655 0.558839
59 2 0.855049 0.35965 0.599135
269 1 0.948314 0.33084 0.678718
270 1 0.0207804 0.393876 0.749382
315 1 0.950223 0.24934 0.582214
316 1 0.0130834 0.33421 0.553673
71 2 0.103175 0.598683 0.599085
224 2 0.0412291 0.438623 0.613729
353 1 0.150538 0.480385 0.550954
381 1 0.165493 0.497617 0.69021
134 2 0.266333 0.537587 0.615784
236 2 0.37609 0.431352 0.633047
83 2 0.430463 0.583394 0.632806
146 2 0.582164 0.52688 0.633029
362 1 0.479125 0.479126 0.560999
390 1 0.479104 0.479133 0.744709
95 2 0.748147 0.587867 0.621724
248 2 0.691912 0.420674 0.61581
158 2 0.917026 0.519629 0.613723
371 1 0.807649 0.477921 0.550987
399 1 0.7928 0.460665 0.690259
39 2 0.211371 0.698623 0.620854
228 2 0.083036 0.779365 0.65779
240 2 0.370118 0.748785 0.622152
288 1 0.303331 0.655076 0.717168
335 1 0.324416 0.64061 0.558856
51 2 0.536493 0.691398 0.61661
252 2 0.69649 0.746663 0.623391
300 1 0.65649 0.653914 0.720007
347 1 0.639436 0.632487 0.561798
63 2 0.863026 0.671129 0.641544
275 1 0.937527 0.564534 0.749324
276 1 0.00990355 0.627658 0.678616
321 1 0.94517 0.623996 0.553639
322 1 0.00800934 0.708975 0.581651
75 2 0.150765 0.917448 0.669701
356 1 0.174951 0.814772 0.560441
384 1 0.123354 0.831007 0.779982
138 2 0.281424 0.859394 0.642735
281 1 0.394353 0.937639 0.752445
282 1 0.331439 0.0113034 0.675714
327 1 0.336671 0.944343 0.560388
328 1 0.258763 0.0268725 0.562182
87 2 0.440097 0.913696 0.61704
150 2 0.602895 0.851729 0.592541
365 1 0.483572 0.805529 0.552127
393 1 0.497113 0.791386 0.691951
99 2 0.77734 0.882864 0.667981
293 1 0.626974 0.946959 0.675578
294 1 0.563995 0.0206245 0.752455
339 1 0.699474 0.93113 0.561692
340 1 0.621734 0.0139147 0.560366
162 2 0.91889 0.814196 0.659222
261 1 0.90856 0.931506 0.624424
262 1 0.935943 0.0365577 0.617078
263 1 0.0223893 0.92174 0.617077
264 1 0.0497073 0.0268238 0.624438
305 1 0.816991 0.960052 0.555836
306 1 0.95795 0.137698 0.551743
307 1 1.00029 0.820657 0.551691
308 1 0.141288 0.998127 0.555821
374 1 0.816873 0.775633 0.586844
402 1 0.841417 0.834069 0.779923
3 2 0.0651249 0.011449 0.771412
28 2 0.180687 0.0548444 0.890663
29 2 0.186619 0.0640233 0.0623802
165 2 0.00791527 0.2507 0.768208
217 2 0.0399604 0.137426 0.89943
218 2 0.0452698 0.142655 0.0648157
351 1 0.158466 0.170148 0.915927
127 2 0.275876 0.193613 0.898659
128 2 0.305121 0.190167 0.0474837
174 2 0.368825 0.208528 0.774287
192 2 0.290358 0.0909131 0.767176
229 2 0.420921 0.102588 0.897666
230 2 0.445036 0.0847185 0.0555483
12 2 0.435533 0.0471193 0.747903
40 2 0.555144 0.00698447 0.898559
41 2 0.571242 0.00424238 0.0654675
139 2 0.627968 0.256489 0.892369
140 2 0.624293 0.257411 0.0688388
201 2 0.567302 0.132358 0.775273
360 1 0.555432 0.145979 0.915462
21 2 0.695662 0.0101387 0.772057
183 2 0.728394 0.192251 0.767618
241 2 0.670924 0.113381 0.905857
242 2 0.679505 0.11578 0.0614426
52 2 0.814696 0.0472459 0.892312
53 2 0.819606 0.0409982 0.0616668
151 2 0.895558 0.185056 0.899684
152 2 0.90469 0.17865 0.0677747
210 2 0.942286 0.0771393 0.767934
369 1 0.774283 0.172142 0.909732
6 2 0.132677 0.389345 0.77315
32 2 0.257008 0.334468 0.89074
33 2 0.256291 0.330589 0.0673969
64 2 0.115611 0.278761 0.89766
65 2 0.113101 0.286894 0.0545598
102 2 0.185061 0.226985 0.761106
333 1 0.374953 0.318009 0.912864
15 2 0.411698 0.358745 0.772521
44 2 0.514246 0.369611 0.901604
45 2 0.510994 0.367883 0.0572253
76 2 0.462936 0.233713 0.905317
77 2 0.464768 0.222764 0.0662094
111 2 0.531355 0.267567 0.757925
24 2 0.753477 0.36718 0.769364
88 2 0.768834 0.302564 0.91145
89 2 0.7654 0.275576 0.0605224
345 1 0.648606 0.377226 0.913235
56 2 0.872656 0.443551 0.90561
57 2 0.855712 0.419004 0.0619913
120 2 0.868582 0.286443 0.768667
317 1 0.891857 0.313558 0.91132
318 1 -0.00189944 0.259252 0.912055
68 2 0.085721 0.514772 0.905586
69 2 0.102543 0.539267 0.0619488
105 2 0.204786 0.591033 0.769206
168 2 0.0471982 0.521792 0.750246
221 2 0.00498302 0.386346 0.894146
222 2 0.00751158 0.402002 0.0603755
354 1 0.147131 0.395226 0.913146
131 2 0.223026 0.49423 0.894154
132 2 0.23286 0.495672 0.0549383
177 2 0.357678 0.548574 0.772847
195 2 0.269893 0.428677 0.754403
233 2 0.368026 0.447261 0.902454
234 2 0.369411 0.444329 0.0581587
80 2 0.444143 0.588713 0.901596
81 2 0.447147 0.59041 0.0571763
114 2 0.546565 0.599486 0.772508
143 2 0.590374 0.511076 0.902491
144 2 0.588768 0.51393 0.0581587
204 2 0.600542 0.40974 0.772822
363 1 0.479191 0.479168 0.900739
92 2 0.701318 0.623901 0.890708
93 2 0.701985 0.627644 0.067392
186 2 0.688396 0.529621 0.754406
245 2 0.735382 0.464105 0.894132
246 2 0.725409 0.462614 0.054899
123 2 0.825589 0.568988 0.773157
155 2 0.953373 0.571994 0.894102
156 2 0.950747 0.556376 0.0603554
213 2 0.911049 0.436567 0.75033
372 1 0.811183 0.563109 0.913161
9 2 0.0896233 0.671885 0.768652
36 2 0.189623 0.655767 0.911511
37 2 0.192717 0.682702 0.0603209
225 2 0.0627117 0.773227 0.899686
226 2 0.0535898 0.779688 0.0676809
198 2 0.229901 0.766071 0.767582
237 2 0.330407 0.701837 0.892483
238 2 0.333838 0.700898 0.0689701
336 1 0.309797 0.581092 0.913283
18 2 0.426878 0.690694 0.7579
48 2 0.495384 0.724702 0.905207
49 2 0.493461 0.735382 0.0660788
207 2 0.589488 0.749708 0.774333
27 2 0.773186 0.731339 0.761147
249 2 0.682269 0.764778 0.898621
250 2 0.653343 0.768077 0.0476731
348 1 0.583319 0.640316 0.912852
60 2 0.842751 0.679526 0.897746
61 2 0.845147 0.671441 0.0545925
216 2 0.95034 0.707735 0.768196
323 1 0.960231 0.699081 0.912043
324 1 0.0664953 0.644728 0.911403
72 2 0.143542 0.911037 0.892345
73 2 0.138736 0.917332 0.061737
108 2 0.262579 0.948185 0.772022
171 2 0.015971 0.881137 0.767908
357 1 0.183955 0.786151 0.90979
135 2 0.287314 0.8449 0.905793
136 2 0.278829 0.842548 0.0613502
180 2 0.391016 0.825912 0.775261
329 1 0.263712 0.959955 0.913831
330 1 0.306507 0.0667101 0.912557
84 2 0.403027 0.95137 0.898518
85 2 0.387226 0.953934 0.0654157
117 2 0.522837 0.911157 0.747872
147 2 0.537217 0.855856 0.897712
148 2 0.513453 0.873372 0.0556936
366 1 0.402799 0.812333 0.915488
96 2 0.777556 0.903422 0.89062
97 2 0.771713 0.894339 0.0623487
189 2 0.667863 0.867317 0.767269
341 1 0.651698 0.891657 0.912549
342 1 0.694579 -0.0016468 0.913857
126 2 0.893159 0.94683 0.771408
159 2 0.918296 0.820919 0.899507
160 2 0.913047 0.815727 0.0648092
309 1 0.897939 0.951438 0.913467
310 1 0.949159 0.0545437 0.91388
311 1 0.00910556 0.903807 0.913869
312 1 0.0603141 0.00689441 0.913456
375 1 0.799743 0.788091 0.915781
ITEM: TIMESTEP
200
ITEM: NUMBER OF ATOMS
402
ITEM: BOX BOUNDS pp pp pp
5.0000000000000000e-01 1.8600000000000001e+01
5.0000000000000000e-01 1.8600000000000001e+01
5.0000000000000000e-01 1.5000000000000000e+01
ITEM: ATOMS id type xs ys zs
1 2 0.120618 0.0514738 0.204495
163 2 0.99437 0.288448 0.206196
349 1 0.169837 0.162707 0.250383
376 1 0.20448 0.214323 0.0561301
172 2 0.356784 0.236375 0.163305
190 2 0.262162 0.123273 0.162412
10 2 0.443037 0.0599057 0.161861
199 2 0.584357 0.140743 0.192202
358 1 0.471949 0.188953 0.221088
385 1 0.591415 0.16967 0.044051
19 2 0.785714 0.99498 0.171872
181 2 0.731694 0.169541 0.226631
208 2 0.919123 0.0339631 0.239206
367 1 0.831419 0.107525 0.214473
394 1 0.822033 0.0938344 0.0723745
4 2 0.132848 0.419397 0.200515
100 2 0.208398 0.276074 0.186455
283 1 0.404131 0.289678 0.0393663
331 1 0.308667 0.336049 0.241574
13 2 0.407907 0.388523 0.128065
109 2 0.515146 0.290314 0.139198
22 2 0.758962 0.360496 0.191982
295 1 0.595856 0.354785 0.0555885
343 1 0.687169 0.278773 0.238579
118 2 0.856415 0.282231 0.173709
265 1 0.88977 0.257927 0.0480687
266 1 0.00358926 0.248667 0.0648607
313 1 0.954975 0.419603 0.236213
314 1 0.032536 0.392772 0.145554
103 2 0.214412 0.660755 0.222059
166 2 0.0175264 0.512113 0.125935
352 1 0.117285 0.553765 0.2169
379 1 0.167123 0.425282 0.0519987
175 2 0.339641 0.573804 0.213502
193 2 0.272935 0.424206 0.136901
112 2 0.594144 0.610926 0.183017
202 2 0.612612 0.372572 0.219383
361 1 0.570837 0.494685 0.225399
388 1 0.441863 0.509665 0.158256
184 2 0.693348 0.504525 0.187246
121 2 0.811535 0.596654 0.179866
211 2 0.862268 0.459024 0.135889
370 1 0.794204 0.459817 0.266504
397 1 0.806232 0.479203 0.00478388
7 2 0.0882345 0.657515 0.146102
196 2 0.246352 0.796253 0.230938
286 1 0.26641 0.613526 0.103991
334 1 0.344853 0.727148 0.248747
16 2 0.464355 0.701781 0.247574
205 2 0.592377 0.762777 0.224047
25 2 0.721644 0.695357 0.160824
298 1 0.589162 0.579729 0.0296376
346 1 0.660158 0.672291 0.27956
214 2 0.965508 0.663715 0.222569
271 1 0.903878 0.725764 0.00874618
272 1 0.000148546 0.686059 0.0555278
319 1 0.91669 0.557818 0.17357
320 1 0.01057 0.562883 0.282431
106 2 0.202146 0.95242 0.189138
169 2 0.0403739 0.916221 0.233867
355 1 0.158845 0.869272 0.284112
382 1 0.126199 0.857093 0.135089
178 2 0.39284 0.835804 0.189534
277 1 0.211844 0.952554 0.0428877
278 1 0.368803 0.122812 0.076565
325 1 0.407797 0.949312 0.166033
326 1 0.316113 0.996365 0.243752
115 2 0.536652 0.911664 0.165471
364 1 0.501085 0.83276 0.286252
391 1 0.389799 0.808719 0.0314304
187 2 0.718377 0.843503 0.174863
289 1 0.602648 0.818037 0.0856376
290 1 0.778217 0.977237 0.0172019
337 1 0.691599 0.949523 0.226632
338 1 0.614983 0.013062 0.161807
124 2 0.881022 0.892666 0.182631
253 1 0.91039 0.831043 0.0610712
254 1 0.991797 0.0368137 0.130442
255 1 0.981456 0.917863 0.0999232
256 1 0.0783385 0.078589 0.0781312
301 1 0.916193 0.925254 0.313593
302 1 0.939715 0.0419597 0.385302
303 1 0.00977718 0.942479 0.393293
304 1 0.0325468 0.0288893 0.293723
373 1 0.813066 0.804973 0.262244
400 1 0.70789 0.77622 0.0434289
2 2 0.038128 0.0587633 0.47088