ITEM: TIMESTEP
0
ITEM: NUMBER OF ATOMS
402
ITEM: BOX BOUNDS pp pp pp
5.0000000000000000e-01 1.8600000000000001e+01
5.0000000000000000e-01 1.8600000000000001e+01
5.0000000000000000e-01 1.5000000000000000e+01
ITEM: ATOMS id type xs ys zs
1 2 0.138089 0.0411906 0.187969
349 1 0.163762 0.169618 0.236163
256 1 0.0669795 0.0715833 0.0740482
218 2 0.0920793 0.178744 0.111471
190 2 0.253645 0.126076 0.149661
10 2 0.39306 0.054522 0.174633
278 1 0.345746 0.103808 0.0601248
199 2 0.562483 0.139717 0.200406
358 1 0.447285 0.189299 0.197888
385 1 0.581753 0.16179 0.0483234
230 2 0.526578 0.0314326 0.0719078
77 2 0.454377 0.160156 0.0532711
19 2 0.792879 0.00121396 0.174948
181 2 0.745491 0.162787 0.217674
338 1 0.611756 0.01576 0.170898
242 2 0.681499 0.0846323 0.0823806
367 1 0.846529 0.103156 0.222615
394 1 0.808505 0.0998473 0.0784568
254 1 0.99123 0.0324816 0.152016
53 2 0.904585 0.0104488 0.0359323
152 2 0.93907 0.144364 0.124012
266 1 0.00101187 0.24113 0.0571407
65 2 0.0999696 0.314502 0.0512601
376 1 0.204677 0.208987 0.046765
172 2 0.344293 0.235867 0.141897
100 2 0.204485 0.278722 0.17976
331 1 0.313649 0.345155 0.230272
13 2 0.398698 0.382247 0.117914
33 2 0.261851 0.325061 0.0154032
283 1 0.42992 0.285457 0.0269993
109 2 0.506739 0.283012 0.154744
295 1 0.581248 0.347814 0.086127
22 2 0.76428 0.378011 0.168355
343 1 0.716284 0.278312 0.235177
202 2 0.620916 0.368252 0.233948
140 2 0.661193 0.253907 0.10645
89 2 0.776091 0.207276 0.0231458
163 2 0.991048 0.293729 0.18933
118 2 0.847735 0.275002 0.166614
265 1 0.88467 0.242392 0.0337198
222 2 0.948377 0.345962 0.00613135
4 2 0.119018 0.42327 0.181982
314 1 0.0165441 0.40484 0.104121
166 2 0.0120969 0.533679 0.14566
352 1 0.124522 0.557969 0.208922
379 1 0.166238 0.419628 0.0466103
132 2 0.172257 0.541568 0.0645512
175 2 0.354272 0.594039 0.239301
193 2 0.266184 0.432038 0.134875
234 2 0.331229 0.540536 0.0684057
361 1 0.576808 0.490963 0.240783
388 1 0.429238 0.510346 0.176626
298 1 0.591572 0.574817 0.0499179
144 2 0.53767 0.468447 0.104887
363 1 0.429969 0.469276 0.0316634
184 2 0.681992 0.496912 0.169909
397 1 0.786113 0.460428 0.0430516
93 2 0.721668 0.576805 0.0316121
246 2 0.668924 0.401134 0.023074
121 2 0.805083 0.550007 0.194881
211 2 0.900023 0.436705 0.140565
319 1 0.913362 0.593726 0.210014
7 2 0.109626 0.6678 0.115006
272 1 0.00271535 0.681685 0.0685263
227 2 0.107596 0.787529 0.24912
37 2 0.189776 0.771622 0.0719584
103 2 0.228653 0.645745 0.203524
196 2 0.259518 0.773184 0.248705
286 1 0.25035 0.646046 0.0511019
391 1 0.399873 0.794033 0.0118712
238 2 0.351106 0.70276 0.0960185
81 2 0.474407 0.613389 0.103235
49 2 0.494795 0.763914 0.101602
112 2 0.6018 0.611107 0.199694
205 2 0.611725 0.76203 0.23005
25 2 0.738143 0.681155 0.162718
400 1 0.712639 0.774751 0.0629531
250 2 0.615983 0.695911 0.0265605
214 2 0.990839 0.682588 0.22278
271 1 0.906967 0.72329 0.0240846
156 2 0.889745 0.612861 0.0655448
160 2 0.861829 0.746771 0.168571
169 2 0.0416849 0.924306 0.217326
382 1 0.114617 0.862232 0.124565
277 1 0.170311 0.962953 0.0773466
226 2 0.0118681 0.801051 0.106713
73 2 0.0614401 0.964994 0.0106795
106 2 0.207338 0.910459 0.205499
326 1 0.330155 0.944149 0.218888
136 2 0.307786 0.850011 0.0850334
85 2 0.287067 0.990867 0.0740323
178 2 0.4053 0.837238 0.212114
325 1 0.455054 0.956505 0.172266
115 2 0.554045 0.897393 0.167878
148 2 0.438705 0.914985 0.0313484
187 2 0.732046 0.841724 0.189262
289 1 0.606108 0.809601 0.0932407
290 1 0.778398 0.985 0.0168721
337 1 0.696148 0.950537 0.224542
41 2 0.665091 0.934497 0.0598572
124 2 0.887053 0.903214 0.188088
253 1 0.90255 0.828705 0.0714382
255 1 0.972173 0.92362 0.0907072
97 2 0.802274 0.869899 0.0351051
304 1 0.0516389 0.0334574 0.292552
2 2 0.0381487 0.0689688 0.437035
219 2 0.038853 0.15441 0.283648
191 2 0.18974 0.127267 0.470639
260 1 0.156886 0.0800728 0.334811
30 2 0.270629 0.0346547 0.304913
129 2 0.271009 0.195211 0.318039
280 1 0.320756 0.107469 0.412319
231 2 0.40745 0.122047 0.31654
11 2 0.4236 0.049842 0.481833
42 2 0.521067 0.0223741 0.283837
200 2 0.541158 0.119435 0.422303
182 2 0.693161 0.144463 0.447185
243 2 0.675365 0.0579496 0.297133
292 1 0.600816 0.0126906 0.393879
208 2 0.929439 0.0353191 0.279476
302 1 0.934419 0.00507085 0.431604
54 2 0.803216 0.0756243 0.366532
153 2 0.891769 0.190992 0.299725
395 1 0.809435 0.173441 0.47917
258 1 0.909315 0.121467 0.42294
164 2 0.0583811 0.227025 0.463451
377 1 0.146813 0.204402 0.36704
5 2 0.114257 0.37999 0.474631
66 2 0.100164 0.301687 0.297288
268 1 0.0172183 0.36543 0.375041
173 2 0.366838 0.209305 0.469938
34 2 0.219935 0.37549 0.319273
101 2 0.209988 0.279615 0.453342
284 1 0.317988 0.304375 0.386024
386 1 0.502543 0.203485 0.329657
14 2 0.413153 0.370088 0.463967
46 2 0.492641 0.397248 0.27987
78 2 0.411408 0.281116 0.301573
110 2 0.519443 0.274203 0.44675
141 2 0.6207 0.227291 0.30993
90 2 0.772026 0.261842 0.369531
296 1 0.664021 0.333387 0.37115
344 1 0.644768 0.254493 0.468263
23 2 0.815205 0.368975 0.484738
58 2 0.89001 0.353444 0.32025
119 2 0.90548 0.252363 0.480981
267 1 0.979905 0.257235 0.346277
320 1 0.020605 0.582138 0.303542
104 2 0.198935 0.584378 0.451476
167 2 0.0439867 0.550605 0.467114
223 2 0.08109 0.477137 0.329927
380 1 0.181725 0.465281 0.403497
133 2 0.233272 0.521666 0.28533
176 2 0.366218 0.543175 0.442949
194 2 0.276413 0.4367 0.477852
235 2 0.361286 0.444649 0.297447
82 2 0.490444 0.555604 0.308824
113 2 0.529502 0.56294 0.494941
203 2 0.571744 0.409385 0.433699
389 1 0.459933 0.470829 0.406308
145 2 0.634928 0.514292 0.363375
94 2 0.750156 0.590538 0.343982
247 2 0.736031 0.422202 0.3497
299 1 0.660237 0.59241 0.478213
313 1 0.989657 0.414875 0.251116
370 1 0.830081 0.446038 0.260783
122 2 0.883957 0.576412 0.489004
157 2 0.923025 0.511432 0.319775
212 2 0.957102 0.435781 0.469088
398 1 0.821152 0.493011 0.409997
70 2 0.123207 0.646131 0.328943
197 2 0.187889 0.766231 0.427501
274 1 0.0385873 0.728767 0.352722
334 1 0.366157 0.726401 0.257534
38 2 0.297156 0.678986 0.401019
239 2 0.382943 0.788428 0.391735
16 2 0.484247 0.703319 0.268163
287 1 0.406037 0.636977 0.352912
17 2 0.465448 0.681969 0.46137
206 2 0.570503 0.795839 0.437099
346 1 0.674579 0.674125 0.279212
50 2 0.607173 0.66868 0.391647
26 2 0.770362 0.669338 0.488172
251 2 0.727331 0.761949 0.345691
62 2 0.865029 0.668292 0.323317
273 1 0.970176 0.644751 0.409333
401 1 0.835679 0.765145 0.408752
355 1 0.189982 0.847437 0.320891
303 1 0.016845 0.931708 0.366516
74 2 0.142777 0.956295 0.371846
383 1 0.0852739 0.837838 0.39568
137 2 0.286107 0.885522 0.372969
279 1 0.34097 0.98176 0.414707
364 1 0.517907 0.831776 0.300018
86 2 0.427837 0.941023 0.336375
116 2 0.536275 0.951136 0.4849
392 1 0.469801 0.860367 0.431532
20 2 0.700993 0.980409 0.484394
149 2 0.619304 0.907678 0.32464
98 2 0.777436 0.923387 0.341858
291 1 0.686029 0.85878 0.422363
301 1 0.905892 0.92138 0.331185
373 1 0.829933 0.821075 0.282457
125 2 0.893516 0.883259 0.469695
161 2 0.954523 0.809356 0.318603
257 1 0.82193 0.988049 0.458322
259 1 0.997016 0.807312 0.471174
220 2 0.0769757 0.138742 0.607299
378 1 0.116527 0.119146 0.740088
264 1 0.0546861 0.0185199 0.594359
308 1 0.13992 0.0192615 0.509982
3 2 0.0252989 0.0284882 0.737288
31 2 0.209554 0.0799629 0.656769
232 2 0.384531 0.114619 0.643068
327 1 0.355646 0.00675792 0.59864
328 1 0.286821 0.104062 0.549147
192 2 0.30128 0.00635238 0.745227
43 2 0.538561 0.0813682 0.623326
359 1 0.469956 0.172447 0.539685
387 1 0.478439 0.179834 0.717698
244 2 0.703319 0.0918004 0.622755
340 1 0.623752 0.0726299 0.518422
209 2 0.930844 0.038245 0.576577
55 2 0.824347 0.00949884 0.699428
154 2 0.848872 0.165628 0.645193
368 1 0.809781 0.0705562 0.553359
262 1 0.96011 0.125086 0.683368
306 1 0.976083 0.153721 0.52797
350 1 0.154353 0.247511 0.583444
67 2 0.0560082 0.294647 0.65214
270 1 0.00233003 0.397142 0.733131
316 1 0.00335012 0.328006 0.521654
102 2 0.167584 0.227236 0.735762
130 2 0.272795 0.21694 0.608824
35 2 0.206344 0.363495 0.623474
285 1 0.336009 0.320276 0.689401
332 1 0.30985 0.329598 0.541798
142 2 0.589621 0.20662 0.591739
47 2 0.536694 0.358619 0.618769
79 2 0.433419 0.270423 0.625158
91 2 0.75227 0.25565 0.576028
297 1 0.636614 0.296597 0.658518
248 2 0.676304 0.371155 0.540037
183 2 0.69297 0.208773 0.739297
204 2 0.673144 0.382025 0.742192
59 2 0.910086 0.354813 0.630002
315 1 0.950357 0.234238 0.629094
120 2 0.813908 0.28195 0.74794
71 2 0.104447 0.590139 0.636538
224 2 0.0573648 0.44203 0.612185
353 1 0.14717 0.501207 0.539455
381 1 0.163238 0.480552 0.691426
134 2 0.265554 0.528301 0.613702
236 2 0.389187 0.430504 0.626499
83 2 0.415926 0.591695 0.607118
362 1 0.497042 0.452519 0.548453
390 1 0.481005 0.510806 0.675511
185 2 0.737592 0.509359 0.524699
146 2 0.60669 0.498219 0.613139
24 2 0.789262 0.434015 0.67831
158 2 0.94302 0.509373 0.658993
371 1 0.864725 0.457856 0.555324
399 1 0.825333 0.556476 0.630484
8 2 0.070401 0.708553 0.504227
322 1 0.0181408 0.708332 0.656782
39 2 0.205005 0.682716 0.592483
240 2 0.355978 0.734324 0.585619
288 1 0.314334 0.626008 0.699339
335 1 0.306379 0.62565 0.540419
51 2 0.515004 0.699923 0.638502
365 1 0.461922 0.784794 0.54402
393 1 0.474071 0.785364 0.738492
95 2 0.727066 0.621842 0.662681
252 2 0.649804 0.74307 0.563176
300 1 0.624242 0.674782 0.730724
347 1 0.612447 0.628315 0.596622
374 1 0.778426 0.724678 0.623236
27 2 0.695249 0.775464 0.727415
215 2 0.916079 0.728371 0.503066
63 2 0.889463 0.661803 0.660946
276 1 0.996976 0.606669 0.729585
321 1 0.987196 0.619531 0.56891
170 2 0.0334555 0.91777 0.522117
228 2 0.109516 0.800625 0.647187
75 2 0.14981 0.947715 0.655063
356 1 0.150696 0.884273 0.511874
263 1 0.0268786 0.906981 0.686578
107 2 0.25285 0.985099 0.507164
179 2 0.386332 0.895806 0.53056
138 2 0.24897 0.825708 0.567812
282 1 0.283002 0.91873 0.640957
180 2 0.36291 0.840384 0.715085
87 2 0.462434 0.963541 0.654462
150 2 0.540176 0.848051 0.635797
188 2 0.766223 0.826039 0.51577
99 2 0.716235 0.909036 0.664673
293 1 0.613212 0.977724 0.626858
339 1 0.631939 0.876316 0.544631
162 2 0.857588 0.817474 0.648041
261 1 0.923583 0.918923 0.613868
305 1 0.808163 0.933158 0.579135
307 1 0.981146 0.811222 0.611467
28 2 0.135121 0.000480461 0.837873
29 2 0.172243 0.0796743 0.999299
165 2 0.0222479 0.187572 0.783042
217 2 0.0208116 0.103544 0.945688
351 1 0.129695 0.111869 0.869004
127 2 0.245065 0.117157 0.82916
128 2 0.307536 0.182767 0.96032
229 2 0.398826 0.0424364 0.948291
330 1 0.278236 0.0444466 0.941935
294 1 0.554118 0.00841108 0.758071
12 2 0.440015 0.0630804 0.798723
40 2 0.565147 0.00275057 0.915244
201 2 0.575482 0.135289 0.791634
360 1 0.51074 0.112191 0.925898
396 1 0.779978 0.115876 0.758852
21 2 0.679172 0.0375178 0.777987
241 2 0.65378 0.149777 0.925023
52 2 0.793915 0.0821535 0.914119
369 1 0.759434 0.198215 0.871424
342 1 0.68491 0.0272913 0.930538
210 2 0.905273 0.0890714 0.812711
310 1 0.903332 0.12595 0.976208
6 2 0.129352 0.385165 0.78128
64 2 0.143401 0.221674 0.916401
318 1 0.01885 0.221143 0.926216
221 2 0.0269468 0.328889 0.863537
354 1 0.16129 0.343845 0.91782
174 2 0.342954 0.201283 0.767682
32 2 0.259122 0.306303 0.82823
333 1 0.355988 0.29753 0.921805
139 2 0.562254 0.266463 0.965971
15 2 0.416324 0.3497 0.795579
45 2 0.495641 0.385619 0.958063
76 2 0.447591 0.213147 0.879703
111 2 0.554748 0.281611 0.776752
345 1 0.599659 0.379366 0.869742
88 2 0.698566 0.299812 0.896869
317 1 0.782574 0.374756 0.826188
269 1 0.939206 0.28569 0.759659
151 2 0.891891 0.227953 0.883952
57 2 0.816718 0.350187 0.980987
68 2 0.0563335 0.452726 0.973727
69 2 0.0308899 0.592947 0.973635
168 2 0.0600408 0.511715 0.801529
324 1 0.131708 0.548523 0.91516
105 2 0.211954 0.575204 0.783554
131 2 0.2102 0.458107 0.916625
177 2 0.392035 0.532496 0.778207
195 2 0.281311 0.433006 0.750358
233 2 0.35457 0.430071 0.931155
336 1 0.296147 0.512967 0.854533
44 2 0.521828 0.439865 0.778433
80 2 0.464144 0.54717 0.932972
114 2 0.534378 0.595405 0.764573
143 2 0.606942 0.503359 0.923985
186 2 0.666774 0.524478 0.762022
245 2 0.754452 0.475742 0.891022
275 1 0.938476 0.521514 0.821729
56 2 0.898683 0.500295 0.968105
123 2 0.827975 0.554388 0.783026
213 2 0.899331 0.406911 0.820933
384 1 0.145951 0.784716 0.793296
9 2 0.0909482 0.676651 0.783498
36 2 0.17457 0.660021 0.930764
225 2 0.0425471 0.741793 0.938855
357 1 0.170954 0.779411 0.924806
198 2 0.245489 0.723904 0.751285
237 2 0.322247 0.616956 0.920726
18 2 0.399941 0.689341 0.775456
135 2 0.295843 0.763023 0.914272
48 2 0.457131 0.696114 0.939622
207 2 0.561964 0.743992 0.828594
348 1 0.564993 0.625677 0.912198
92 2 0.68978 0.644729 0.860894
61 2 0.796612 0.713487 0.9889
155 2 0.937397 0.641613 0.861406
372 1 0.807312 0.604053 0.923088
60 2 0.81675 0.720445 0.800202
216 2 0.971338 0.779772 0.766346
323 1 0.920307 0.755312 0.894631
72 2 0.195803 0.896197 0.960564
171 2 0.0696988 0.876699 0.827573
311 1 0.0779799 0.848929 0.97869
281 1 0.398489 0.951891 0.775538
108 2 0.22284 0.871537 0.772018
329 1 0.243481 0.962703 0.863262
84 2 0.341332 0.908666 0.896866
117 2 0.484486 0.894355 0.827893
147 2 0.553914 0.848362 0.967129
366 1 0.406554 0.801458 0.864275
249 2 0.692122 0.800679 0.912476
96 2 0.763488 0.932669 0.863589
189 2 0.614231 0.89246 0.778017
341 1 0.648011 0.910904 0.915847
402 1 0.803628 0.850777 0.767498
126 2 0.913667 0.919635 0.772761
159 2 0.942156 0.870711 0.94156
309 1 0.874417 0.97966 0.8969
312 1 0.994014 0.986105 0.881272
375 1 0.817176 0.815798 0.901936
ITEM: TIMESTEP
100
ITEM: NUMBER OF ATOMS
402
ITEM: BOX BOUNDS pp pp pp
5.0000000000000000e-01 1.8600000000000001e+01
5.0000000000000000e-01 1.8600000000000001e+01
5.0000000000000000e-01 1.5000000000000000e+01
ITEM: ATOMS id type xs ys zs
1 2 0.138089 0.0411906 0.187969
349 1 0.163762 0.169618 0.236163
256 1 0.0669795 0.0715833 0.0740482
218 2 0.0920793 0.178744 0.111471
190 2 0.253645 0.126076 0.149661
10 2 0.39306 0.054522 0.174633
278 1 0.345746 0.103808 0.0601248
199 2 0.562483 0.139717 0.200406
358 1 0.447285 0.189299 0.197888
385 1 0.581753 0.16179 0.0483234
230 2 0.526578 0.0314326 0.0719078
77 2 0.454377 0.160156 0.0532711
19 2 0.792879 0.00121396 0.174948
181 2 0.745491 0.162787 0.217674
338 1 0.611756 0.01576 0.170898
242 2 0.681499 0.0846323 0.0823806
367 1 0.846529 0.103156 0.222615
394 1 0.808505 0.0998473 0.0784568
254 1 0.99123 0.0324816 0.152016
53 2 0.904585 0.0104488 0.0359323
152 2 0.93907 0.144364 0.124012
266 1 0.00101187 0.24113 0.0571407
65 2 0.0999696 0.314502 0.0512601
376 1 0.204677 0.208987 0.046765
172 2 0.344293 0.235867 0.141897
100 2 0.204485 0.278722 0.17976
331 1 0.313649 0.345155 0.230272
13 2 0.398698 0.382247 0.117914
33 2 0.261851 0.325061 0.0154032
283 1 0.42992 0.285457 0.0269993
109 2 0.506739 0.283012 0.154744
295 1 0.581248 0.347814 0.086127
22 2 0.76428 0.378011 0.168355
343 1 0.716284 0.278312 0.235177
202 2 0.620916 0.368252 0.233948
140 2 0.661193 0.253907 0.10645
89 2 0.776091 0.207276 0.0231458
163 2 0.991048 0.293729 0.18933
118 2 0.847735 0.275002 0.166614
265 1 0.88467 0.242392 0.0337198
222 2 0.948377 0.345962 0.00613135
4 2 0.119018 0.42327 0.181982
314 1 0.0165441 0.40484 0.104121
166 2 0.0120969 0.533679 0.14566
352 1 0.124522 0.557969 0.208922
379 1 0.166238 0.419628 0.0466103
132 2 0.172257 0.541568 0.0645512
175 2 0.354272 0.594039 0.239301
193 2 0.266184 0.432038 0.134875
234 2 0.331229 0.540536 0.0684057
361 1 0.576808 0.490963 0.240783
388 1 0.429238 0.510346 0.176626
298 1 0.591572 0.574817 0.0499179
144 2 0.53767 0.468447 0.104887
363 1 0.429969 0.469276 0.0316634
184 2 0.681992 0.496912 0.169909
397 1 0.786113 0.460428 0.0430516
93 2 0.721668 0.576805 0.0316121
246 2 0.668924 0.401134 0.023074
121 2 0.805083 0.550007 0.194881
211 2 0.900023 0.436705 0.140565
319 1 0.913362 0.593726 0.210014
7 2 0.109626 0.6678 0.115006
272 1 0.00271535 0.681685 0.0685263
227 2 0.107596 0.787529 0.24912
37 2 0.189776 0.771622 0.0719584
103 2 0.228653 0.645745 0.203524
196 2 0.259518 0.773184 0.248705
286 1 0.25035 0.646046 0.0511019
391 1 0.399873 0.794033 0.0118712
238 2 0.351106 0.70276 0.0960185
81 2 0.474407 0.613389 0.103235
49 2 0.494795 0.763914 0.101602
112 2 0.6018 0.611107 0.199694
205 2 0.611725 0.76203 0.23005
25 2 0.738143 0.681155 0.162718
400 1 0.712639 0.774751 0.0629531
250 2 0.615983 0.695911 0.0265605
214 2 0.990839 0.682588 0.22278
271 1 0.906967 0.72329 0.0240846
156 2 0.889745 0.612861 0.0655448
160 2 0.861829 0.746771 0.168571
169 2 0.0416849 0.924306 0.217326
382 1 0.114617 0.862232 0.124565
277 1 0.170311 0.962953 0.0773466
226 2 0.0118681 0.801051 0.106713
73 2 0.0614401 0.964994 0.0106795
106 2 0.207338 0.910459 0.205499
326 1 0.330155 0.944149 0.218888
136 2 0.307786 0.850011 0.0850334
85 2 0.287067 0.990867 0.0740323
178 2 0.4053 0.837238 0.212114
325 1 0.455054 0.956505 0.172266
115 2 0.554045 0.897393 0.167878
148 2 0.438705 0.914985 0.0313484
187 2 0.732046 0.841724 0.189262
289 1 0.606108 0.809601 0.0932407
290 1 0.778398 0.985 0.0168721
337 1 0.696148 0.950537 0.224542
41 2 0.665091 0.934497 0.0598572
124 2 0.887053 0.903214 0.188088
253 1 0.90255 0.828705 0.0714382
255 1 0.972173 0.92362 0.0907072
97 2 0.802274 0.869899 0.0351051
304 1 0.0516389 0.0334574 0.292552
2 2 0.0381487 0.0689688 0.437035
219 2 0.038853 0.15441 0.283648
191 2 0.18974 0.127267 0.470639
260 1 0.156886 0.0800728 0.334811
30 2 0.270629 0.0346547 0.304913
129 2 0.271009 0.195211 0.318039
280 1 0.320756 0.107469 0.412319
231 2 0.40745 0.122047 0.31654
11 2 0.4236 0.049842 0.481833
42 2 0.521067 0.0223741 0.283837
200 2 0.541158 0.119435 0.422303
182 2 0.693161 0.144463 0.447185
243 2 0.675365 0.0579496 0.297133
292 1 0.600816 0.0126906 0.393879
208 2 0.929439 0.0353191 0.279476
302 1 0.934419 0.00507085 0.431604
54 2 0.803216 0.0756243 0.366532
153 2 0.891769 0.190992 0.299725
395 1 0.809435 0.173441 0.47917
258 1 0.909315 0.121467 0.42294
164 2 0.0583811 0.227025 0.463451
377 1 0.146813 0.204402 0.36704
5 2 0.114257 0.37999 0.474631
66 2 0.100164 0.301687 0.297288
268 1 0.0172183 0.36543 0.375041
173 2 0.366838 0.209305 0.469938
34 2 0.219935 0.37549 0.319273
101 2 0.209988 0.279615 0.453342
284 1 0.317988 0.304375 0.386024
386 1 0.502543 0.203485 0.329657
14 2 0.413153 0.370088 0.463967
46 2 0.492641 0.397248 0.27987
78 2 0.411408 0.281116 0.301573
110 2 0.519443 0.274203 0.44675
141 2 0.6207 0.227291 0.30993
90 2 0.772026 0.261842 0.369531
296 1 0.664021 0.333387 0.37115
344 1 0.644768 0.254493 0.468263
23 2 0.815205 0.368975 0.484738
58 2 0.89001 0.353444 0.32025
119 2 0.90548 0.252363 0.480981
267 1 0.979905 0.257235 0.346277
320 1 0.020605 0.582138 0.303542
104 2 0.198935 0.584378 0.451476
167 2 0.0439867 0.550605 0.467114
223 2 0.08109 0.477137 0.329927
380 1 0.181725 0.465281 0.403497
133 2 0.233272 0.521666 0.28533
176 2 0.366218 0.543175 0.442949
194 2 0.276413 0.4367 0.477852
235 2 0.361286 0.444649 0.297447
82 2 0.490444 0.555604 0.308824
113 2 0.529502 0.56294 0.494941
203 2 0.571744 0.409385 0.433699
389 1 0.459933 0.470829 0.406308
145 2 0.634928 0.514292 0.363375
94 2 0.750156 0.590538 0.343982
247 2 0.736031 0.422202 0.3497
299 1 0.660237 0.59241 0.478213
313 1 0.989657 0.414875 0.251116
370 1 0.830081 0.446038 0.260783
122 2 0.883957 0.576412 0.489004
157 2 0.923025 0.511432 0.319775
212 2 0.957102 0.435781 0.469088
398 1 0.821152 0.493011 0.409997
70 2 0.123207 0.646131 0.328943
197 2 0.187889 0.766231 0.427501
274 1 0.0385873 0.728767 0.352722
334 1 0.366157 0.726401 0.257534
38 2 0.297156 0.678986 0.401019
239 2 0.382943 0.788428 0.391735
16 2 0.484247 0.703319 0.268163
287 1 0.406037 0.636977 0.352912
17 2 0.465448 0.681969 0.46137
206 2 0.570503 0.795839 0.437099
346 1 0.674579 0.674125 0.279212
50 2 0.607173 0.66868 0.391647
26 2 0.770362 0.669338 0.488172
251 2 0.727331 0.761949 0.345691
62 2 0.865029 0.668292 0.323317
273 1 0.970176 0.644751 0.409333
401 1 0.835679 0.765145 0.408752
355 1 0.189982 0.847437 0.320891
303 1 0.016845 0.931708 0.366516
74 2 0.142777 0.956295 0.371846
383 1 0.0852739 0.837838 0.39568
137 2 0.286107 0.885522 0.372969
279 1 0.34097 0.98176 0.414707
364 1 0.517907 0.831776 0.300018
86 2 0.427837 0.941023 0.336375
116 2 0.536275 0.951136 0.4849
392 1 0.469801 0.860367 0.431532
20 2 0.700993 0.980409 0.484394
149 2 0.619304 0.907678 0.32464
98 2 0.777436 0.923387 0.341858
291 1 0.686029 0.85878 0.422363
301 1 0.905892 0.92138 0.331185
373 1 0.829933 0.821075 0.282457
125 2 0.893516 0.883259 0.469695
161 2 0.954523 0.809356 0.318603
257 1 0.82193 0.988049 0.458322
259 1 0.997016 0.807312 0.471174
220 2 0.0769757 0.138742 0.607299
378 1 0.116527 0.119146 0.740088
264 1 0.0546861 0.0185199 0.594359
308 1 0.13992 0.0192615 0.509982
3 2 0.0252989 0.0284882 0.737288
31 2 0.209554 0.0799629 0.656769
232 2 0.384531 0.114619 0.643068
327 1 0.355646 0.00675792 0.59864
328 1 0.286821 0.104062 0.549147
192 2 0.30128 0.00635238 0.745227
43 2 0.538561 0.0813682 0.623326
359 1 0.469956 0.172447 0.539685
387 1 0.478439 0.179834 0.717698
244 2 0.703319 0.0918004 0.622755
340 1 0.623752 0.0726299 0.518422
209 2 0.930844 0.038245 0.576577
55 2 0.824347 0.00949884 0.699428
154 2 0.848872 0.165628 0.645193
368 1 0.809781 0.0705562 0.553359
262 1 0.96011 0.125086 0.683368
306 1 0.976083 0.153721 0.52797
350 1 0.154353 0.247511 0.583444
67 2 0.0560082 0.294647 0.65214
270 1 0.00233003 0.397142 0.733131
316 1 0.00335012 0.328006 0.521654
102 2 0.167584 0.227236 0.735762
130 2 0.272795 0.21694 0.608824
35 2 0.206344 0.363495 0.623474
285 1 0.336009 0.320276 0.689401
332 1 0.30985 0.329598 0.541798
142 2 0.589621 0.20662 0.591739
47 2 0.536694 0.358619 0.618769
79 2 0.433419 0.270423 0.625158
91 2 0.75227 0.25565 0.576028
297 1 0.636614 0.296597 0.658518
248 2 0.676304 0.371155 0.540037
183 2 0.69297 0.208773 0.739297
204 2 0.673144 0.382025 0.742192
59 2 0.910086 0.354813 0.630002
315 1 0.950357 0.234238 0.629094
120 2 0.813908 0.28195 0.74794
71 2 0.104447 0.590139 0.636538
224 2 0.0573648 0.44203 0.612185
353 1 0.14717 0.501207 0.539455
381 1 0.163238 0.480552 0.691426
134 2 0.265554 0.528301 0.613702
236 2 0.389187 0.430504 0.626499
83 2 0.415926 0.591695 0.607118
362 1 0.497042 0.452519 0.548453
390 1 0.481005 0.510806 0.675511
185 2 0.737592 0.509359 0.524699
146 2 0.60669 0.498219 0.613139
24 2 0.789262 0.434015 0.67831
158 2 0.94302 0.509373 0.658993
371 1 0.864725 0.457856 0.555324
399 1 0.825333 0.556476 0.630484
8 2 0.070401 0.708553 0.504227
322 1 0.0181408 0.708332 0.656782
39 2 0.205005 0.682716 0.592483
240 2 0.355978 0.734324 0.585619
288 1 0.314334 0.626008 0.699339
335 1 0.306379 0.62565 0.540419
51 2 0.515004 0.699923 0.638502
365 1 0.461922 0.784794 0.54402
393 1 0.474071 0.785364 0.738492
95 2 0.727066 0.621842 0.662681
252 2 0.649804 0.74307 0.563176
300 1 0.624242 0.674782 0.730724
347 1 0.612447 0.628315 0.596622
374 1 0.778426 0.724678 0.623236
27 2 0.695249 0.775464 0.727415
215 2 0.916079 0.728371 0.503066
63 2 0.889463 0.661803 0.660946
276 1 0.996976 0.606669 0.729585
321 1 0.987196 0.619531 0.56891
170 2 0.0334555 0.91777 0.522117
228 2 0.109516 0.800625 0.647187
75 2 0.14981 0.947715 0.655063
356 1 0.150696 0.884273 0.511874
263 1 0.0268786 0.906981 0.686578
107 2 0.25285 0.985099 0.507164
179 2 0.386332 0.895806 0.53056
138 2 0.24897 0.825708 0.567812
282 1 0.283002 0.91873 0.640957
180 2 0.36291 0.840384 0.715085
87 2 0.462434 0.963541 0.654462
150 2 0.540176 0.848051 0.635797
188 2 0.766223 0.826039 0.51577
99 2 0.716235 0.909036 0.664673
293 1 0.613212 0.977724 0.626858
339 1 0.631939 0.876316 0.544631
162 2 0.857588 0.817474 0.648041
261 1 0.923583 0.918923 0.613868
305 1 0.808163 0.933158 0.579135
307 1 0.981146 0.811222 0.611467
28 2 0.135121 0.000480461 0.837873
29 2 0.172243 0.0796743 0.999299
165 2 0.0222479 0.187572 0.783042
217 2 0.0208116 0.103544 0.945688
351 1 0.129695 0.111869 0.869004
127 2 0.245065 0.117157 0.82916
128 2 0.307536 0.182767 0.96032
229 2 0.398826 0.0424364 0.948291
330 1 0.278236 0.0444466 0.941935
294 1 0.554118 0.00841108 0.758071
12 2 0.440015 0.0630804 0.798723
40 2 0.565147 0.00275057 0.915244
201 2 0.575482 0.135289 0.791634
360 1 0.51074 0.112191 0.925898
396 1 0.779978 0.115876 0.758852
21 2 0.679172 0.0375178 0.777987
241 2 0.65378 0.149777 0.925023
52 2 0.793915 0.0821535 0.914119
369 1 0.759434 0.198215 0.871424
342 1 0.68491 0.0272913 0.930538
210 2 0.905273 0.0890714 0.812711
310 1 0.903332 0.12595 0.976208
6 2 0.129352 0.385165 0.78128
64 2 0.143401 0.221674 0.916401
318 1 0.01885 0.221143 0.926216
221 2 0.0269468 0.328889 0.863537
354 1 0.16129 0.343845 0.91782
174 2 0.342954 0.201283 0.767682
32 2 0.259122 0.306303 0.82823
333 1 0.355988 0.29753 0.921805
139 2 0.562254 0.266463 0.965971
15 2 0.416324 0.3497 0.795579
45 2 0.495641 0.385619 0.958063
76 2 0.447591 0.213147 0.879703
111 2 0.554748 0.281611 0.776752
345 1 0.599659 0.379366 0.869742
88 2 0.698566 0.299812 0.896869
317 1 0.782574 0.374756 0.826188
269 1 0.939206 0.28569 0.759659
151 2 0.891891 0.227953 0.883952
57 2 0.816718 0.350187 0.980987
68 2 0.0563335 0.452726 0.973727
69 2 0.0308899 0.592947 0.973635
168 2 0.0600408 0.511715 0.801529
324 1 0.131708 0.548523 0.91516
105 2 0.211954 0.575204 0.783554
131 2 0.2102 0.458107 0.916625
177 2 0.392035 0.532496 0.778207
195 2 0.281311 0.433006 0.750358
233 2 0.35457 0.430071 0.931155
336 1 0.296147 0.512967 0.854533
44 2 0.521828 0.439865 0.778433
80 2 0.464144 0.54717 0.932972
114 2 0.534378 0.595405 0.764573
143 2 0.606942 0.503359 0.923985
186 2 0.666774 0.524478 0.762022
245 2 0.754452 0.475742 0.891022
275 1 0.938476 0.521514 0.821729
56 2 0.898683 0.500295 0.968105
123 2 0.827975 0.554388 0.783026
213 2 0.899331 0.406911 0.820933
384 1 0.145951 0.784716 0.793296
9 2 0.0909482 0.676651 0.783498
36 2 0.17457 0.660021 0.930764
225 2 0.0425471 0.741793 0.938855
357 1 0.170954 0.779411 0.924806
198 2 0.245489 0.723904 0.751285
237 2 0.322247 0.616956 0.920726
18 2 0.399941 0.689341 0.775456
135 2 0.295843 0.763023 0.914272
48 2 0.457131 0.696114 0.939622
207 2 0.561964 0.743992 0.828594
348 1 0.564993 0.625677 0.912198
92 2 0.68978 0.644729 0.860894
61 2 0.796612 0.713487 0.9889
155 2 0.937397 0.641613 0.861406
372 1 0.807312 0.604053 0.923088
60 2 0.81675 0.720445 0.800202
216 2 0.971338 0.779772 0.766346
323 1 0.920307 0.755312 0.894631
72 2 0.195803 0.896197 0.960564
171 2 0.0696988 0.876699 0.827573
311 1 0.0779799 0.848929 0.97869
281 1 0.398489 0.951891 0.775538
108 2 0.22284 0.871537 0.772018
329 1 0.243481 0.962703 0.863262
84 2 0.341332 0.908666 0.896866
117 2 0.484486 0.894355 0.827893
147 2 0.553914 0.848362 0.967129
366 1 0.406554 0.801458 0.864275
249 2 0.692122 0.800679 0.912476
96 2 0.763488 0.932669 0.863589
189 2 0.614231 0.89246 0.778017
341 1 0.648011 0.910904 0.915847
402 1 0.803628 0.850777 0.767498
126 2 0.913667 0.919635 0.772761
159 2 0.942156 0.870711 0.94156
309 1 0.874417 0.97966 0.8969
312 1 0.994014 0.986105 0.881272
375 1 0.817176 0.815798 0.901936
ITEM: TIMESTEP
200
ITEM: NUMBER OF ATOMS
402
ITEM: BOX BOUNDS pp pp pp
5.0000000000000000e-01 1.8600000000000001e+01
5.0000000000000000e-01 1.8600000000000001e+01
5.0000000000000000e-01 1.5000000000000000e+01
ITEM: ATOMS id type xs ys zs
1 2 0.138089 0.0411906 0.187969
349 1 0.163762 0.169618 0.236163
256 1 0.0669795 0.0715833 0.0740482
218 2 0.0920793 0.178744 0.111471
190 2 0.253645 0.126076 0.149661
10 2 0.39306 0.054522 0.174633
278 1 0.345746 0.103808 0.0601248
199 2 0.562483 0.139717 0.200406
358 1 0.447285 0.189299 0.197888
385 1 0.581753 0.16179 0.0483234
230 2 0.526578 0.0314326 0.0719078
77 2 0.454377 0.160156 0.0532711
19 2 0.792879 0.00121396 0.174948
181 2 0.745491 0.162787 0.217674
338 1 0.611756 0.01576 0.170898
242 2 0.681499 0.0846323 0.0823806
367 1 0.846529 0.103156 0.222615
394 1 0.808505 0.0998473 0.0784568
254 1 0.99123 0.0324816 0.152016
53 2 0.904585 0.0104488 0.0359323
152 2 0.93907 0.144364 0.124012
266 1 0.00101187 0.24113 0.0571407
65 2 0.0999696 0.314502 0.0512601
376 1 0.204677 0.208987 0.046765
172 2 0.344293 0.235867 0.141897
100 2 0.204485 0.278722 0.17976
331 1 0.313649 0.345155 0.230272
13 2 0.398698 0.382247 0.117914
33 2 0.261851 0.325061 0.0154032
283 1 0.42992 0.285457 0.0269993
109 2 0.506739 0.283012 0.154744
295 1 0.581248 0.347814 0.086127
22 2 0.76428 0.378011 0.168355
343 1 0.716284 0.278312 0.235177
202 2 0.620916 0.368252 0.233948
140 2 0.661193 0.253907 0.10645
89 2 0.776091 0.207276 0.0231458
163 2 0.991048 0.293729 0.18933
118 2 0.847735 0.275002 0.166614
265 1 0.88467 0.242392 0.0337198
222 2 0.948377 0.345962 0.00613135
4 2 0.119018 0.42327 0.181982
314 1 0.0165441 0.40484 0.104121
166 2 0.0120969 0.533679 0.14566
352 1 0.124522 0.557969 0.208922
379 1 0.166238 0.419628 0.0466103
132 2 0.172257 0.541568 0.0645512
175 2 0.354272 0.594039 0.239301
193 2 0.266184 0.432038 0.134875
234 2 0.331229 0.540536 0.0684057
361 1 0.576808 0.490963 0.240783
388 1 0.429238 0.510346 0.176626
298 1 0.591572 0.574817 0.0499179
144 2 0.53767 0.468447 0.104887
363 1 0.429969 0.469276 0.0316634
184 2 0.681992 0.496912 0.169909
397 1 0.786113 0.460428 0.0430516
93 2 0.721668 0.576805 0.0316121
246 2 0.668924 0.401134 0.023074
121 2 0.805083 0.550007 0.194881
211 2 0.900023 0.436705 0.140565
319 1 0.913362 0.593726 0.210014
7 2 0.109626 0.6678 0.115006
272 1 0.00271535 0.681685 0.0685263
227 2 0.107596 0.787529 0.24912
37 2 0.189776 0.771622 0.0719584
103 2 0.228653 0.645745 0.203524
196 2 0.259518 0.773184 0.248705
286 1 0.25035 0.646046 0.0511019
391 1 0.399873 0.794033 0.0118712
238 2 0.351106 0.70276 0.0960185
81 2 0.474407 0.613389 0.103235
49 2 0.494795 0.763914 0.101602
112 2 0.6018 0.611107 0.199694
205 2 0.611725 0.76203 0.23005
25 2 0.738143 0.681155 0.162718
400 1 0.712639 0.774751 0.0629531
250 2 0.615983 0.695911 0.0265605
214 2 0.990839 0.682588 0.22278
271 1 0.906967 0.72329 0.0240846
156 2 0.889745 0.612861 0.0655448
160 2 0.861829 0.746771 0.168571
169 2 0.0416849 0.924306 0.217326
382 1 0.114617 0.862232 0.124565
277 1 0.170311 0.962953 0.0773466
226 2 0.0118681 0.801051 0.106713
73 2 0.0614401 0.964994 0.0106795
106 2 0.207338 0.910459 0.205499
326 1 0.330155 0.944149 0.218888
136 2 0.307786 0.850011 0.0850334