ITEM: TIMESTEP
0
ITEM: NUMBER OF ATOMS
125
ITEM: BOX BOUNDS pp pp pp
0.0000000000000000e+00 9.6999999999999993e+00
0.0000000000000000e+00 9.6999999999999993e+00
0.0000000000000000e+00 1.5800000000000001e+01
ITEM: ATOMS id type xs ys zs
1 2 0 0.287842 0.0332335
8 2 0 0.287842 0.215501
25 2 0.498557 0.287842 0.0332335
28 2 0.498557 0.287842 0.215501
33 1 0 0 0
41 1 0 0 0.248734
57 1 0.249278 0.431763 0
59 1 0.498557 0 0
65 1 0.249278 0.431763 0.248734
66 1 0.498557 0 0.248734
78 1 0.127045 0.0733497 0.124367
106 1 0.249278 0.285063 0.124367
114 1 0.371511 0.0733497 0.124367
37 1 0.997113 0 0
43 1 0.997113 0 0.248734
53 1 0.750722 0.431763 0
55 1 0.747835 0.431763 0
63 1 0.750722 0.431763 0.248734
64 1 0.747835 0.431763 0.248734
80 1 0.870068 0.0733497 0.124367
102 1 0.625602 0.0733497 0.124367
112 1 0.747835 0.285063 0.124367
3 2 0.249278 0.719605 0.0332335
10 2 0.249278 0.719605 0.215501
39 1 0.498557 0.863526 0
44 1 0.498557 0.863526 0.248734
61 1 0 0.863526 0
67 1 0 0.863526 0.248734
82 1 0.498557 0.716826 0.124367
92 1 0.122233 0.505112 0.124367
94 1 0 0.716826 0.124367
116 1 0.376324 0.505112 0.124367
5 2 0.750722 0.719605 0.0332335
12 2 0.750722 0.719605 0.215501
35 1 0.501443 0.863526 0
42 1 0.501443 0.863526 0.248734
90 1 0.877767 0.505112 0.124367
104 1 0.62079 0.505112 0.124367
9 2 0.249278 0.143921 0.281968
16 2 0.249278 0.143921 0.464235
45 1 0 0 0.497468
70 1 0.249278 0.431763 0.497468
71 1 0.498557 0 0.497468
86 1 0 0.146699 0.373101
97 1 0.376324 0.358413 0.373101
98 1 0.498557 0.146699 0.373101
119 1 0.122233 0.358413 0.373101
11 2 0.747835 0.143921 0.281968
18 2 0.747835 0.143921 0.464235
47 1 0.997113 0 0.497468
68 1 0.750722 0.431763 0.497468
69 1 0.747835 0.431763 0.497468
96 1 0.62079 0.358413 0.373101
109 1 0.877767 0.358413 0.373101
7 2 0.498557 0.575684 0.281968
14 2 0.498557 0.575684 0.464235
27 2 0 0.575684 0.281968
30 2 0 0.575684 0.464235
48 1 0.498557 0.863526 0.497468
72 1 0 0.863526 0.497468
84 1 0.371511 0.790176 0.373101
110 1 0.249278 0.578462 0.373101
118 1 0.127045 0.790176 0.373101
46 1 0.501443 0.863526 0.497468
85 1 0.628489 0.790176 0.373101
108 1 0.872955 0.790176 0.373101
117 1 0.750722 0.578462 0.373101
13 2 0 0.287842 0.530702
20 2 0 0.287842 0.712969
29 2 0.498557 0.287842 0.530702
32 2 0.498557 0.287842 0.712969
49 1 0 0 0.746203
75 1 0.249278 0.431763 0.746203
76 1 0.498557 0 0.746203
87 1 0.127045 0.0733497 0.621835
122 1 0.249278 0.285063 0.621835
124 1 0.371511 0.0733497 0.621835
51 1 0.997113 0 0.746203
73 1 0.750722 0.431763 0.746203
74 1 0.747835 0.431763 0.746203
88 1 0.870068 0.0733497 0.621835
120 1 0.625602 0.0733497 0.621835
123 1 0.747835 0.285063 0.621835
15 2 0.249278 0.719605 0.530702
22 2 0.249278 0.719605 0.712969
52 1 0.498557 0.863526 0.746203
77 1 0 0.863526 0.746203
89 1 0.498557 0.716826 0.621835
100 1 0.122233 0.505112 0.621835
101 1 0 0.716826 0.621835
125 1 0.376324 0.505112 0.621835
17 2 0.750722 0.719605 0.530702
24 2 0.750722 0.719605 0.712969
50 1 0.501443 0.863526 0.746203
99 1 0.877767 0.505112 0.621835
121 1 0.62079 0.505112 0.621835
4 2 0.249278 0.143921 0.961703
21 2 0.249278 0.143921 0.779436
34 1 0 0 0.994937
58 1 0.249278 0.431763 0.994937
60 1 0.498557 0 0.994937
83 1 0 0.146699 0.87057
93 1 0.376324 0.358413 0.87057
95 1 0.498557 0.146699 0.87057
115 1 0.122233 0.358413 0.87057
6 2 0.747835 0.143921 0.961703
23 2 0.747835 0.143921 0.779436
38 1 0.997113 0 0.994937
54 1 0.750722 0.431763 0.994937
56 1 0.747835 0.431763 0.994937
91 1 0.62079 0.358413 0.87057
105 1 0.877767 0.358413 0.87057
2 2 0.498557 0.575684 0.961703
19 2 0.498557 0.575684 0.779436
26 2 0 0.575684 0.961703
31 2 0 0.575684 0.779436
40 1 0.498557 0.863526 0.994937
62 1 0 0.863526 0.994937
79 1 0.371511 0.790176 0.87057
107 1 0.249278 0.578462 0.87057
113 1 0.127045 0.790176 0.87057
36 1 0.501443 0.863526 0.994937
81 1 0.628489 0.790176 0.87057
103 1 0.872955 0.790176 0.87057
111 1 0.750722 0.578462 0.87057
ITEM: TIMESTEP
100
ITEM: NUMBER OF ATOMS
125
ITEM: BOX BOUNDS pp pp pp
0.0000000000000000e+00 9.6999999999999993e+00
0.0000000000000000e+00 9.6999999999999993e+00
0.0000000000000000e+00 1.5800000000000001e+01
ITEM: ATOMS id type xs ys zs
1 2 0.0202237 0.256586 0.0220359
8 2 1.00459 0.31243 0.210483
25 2 0.475268 0.338449 0.0775879
28 2 0.447442 0.249602 0.256
33 1 0.796565 0.942385 0.894887
41 1 0.090188 0.938874 0.15479
57 1 0.217128 0.452721 0.0553948
59 1 0.495875 0.0516612 0.0345845
65 1 0.263612 0.437607 0.204828
66 1 0.452461 0.0139143 0.176036
78 1 0.20622 0.181358 0.130624
106 1 0.232751 0.218789 0.119079
114 1 0.274959 0.161617 0.126921
37 1 0.905429 0.0153413 0.0436277
43 1 0.941102 0.0514646 0.272603
53 1 0.967967 0.521104 0.064053
55 1 0.756051 0.406169 0.0689566
63 1 0.815877 0.47661 0.305742
64 1 0.680012 0.366809 0.205579
80 1 0.815489 0.139463 0.156122
102 1 0.658338 0.158838 0.135639
112 1 0.803766 0.181558 0.132648
3 2 0.17833 0.717639 0.0391921
10 2 0.265477 0.734393 0.229545
39 1 0.417699 0.822781 0.0844955
44 1 0.435287 0.906399 0.310062
61 1 0.941152 0.783244 0.110098
67 1 0.0241373 0.811922 0.279424
82 1 0.582892 0.580697 0.127113
92 1 0.0654739 0.581936 0.187225
94 1 0.0226287 0.587921 0.199462
116 1 0.415205 0.586139 0.133778
5 2 0.760804 0.68324 0.0203919
12 2 0.783083 0.716896 0.224204
35 1 0.327283 0.881646 0.958516
42 1 0.539931 0.787155 0.202195
90 1 1.00142 0.581312 0.204619
104 1 0.603987 0.571836 0.13377
9 2 0.210528 0.0524882 0.26837
16 2 0.241737 0.080894 0.461856
45 1 0.0512789 1.01226 0.568248
70 1 0.253193 0.480288 0.488271
71 1 0.475648 0.0940028 0.557719
86 1 0.0867995 0.241043 0.364334
97 1 0.298129 0.412534 0.350381
98 1 0.480523 0.095792 0.383292
119 1 0.104036 0.253691 0.362505
11 2 0.681118 0.0245491 0.269134
18 2 0.709246 0.0869746 0.465585
47 1 0.978984 0.0321993 0.422098
68 1 0.795299 0.467263 0.451085
69 1 0.662741 0.387915 0.560015
96 1 0.654431 0.294033 0.352652
109 1 0.883561 0.245151 0.359541
7 2 0.526764 0.550203 0.291976
14 2 0.530689 0.606086 0.483668
27 2 0.0701018 0.543223 0.352977
30 2 -0.000427212 0.556405 0.535087
48 1 0.485186 0.888664 0.456138
72 1 0.00627392 0.778233 0.439815
84 1 0.35703 0.719013 0.383111
110 1 0.317549 0.654989 0.384815
118 1 0.220301 0.837301 0.375976
46 1 0.502084 0.836754 0.597595
85 1 0.647153 0.783456 0.364398
108 1 0.819735 0.87042 0.367169
117 1 0.737423 0.676188 0.383748
13 2 0.958588 0.256245 0.512887
20 2 0.969223 0.305426 0.700199
29 2 0.463735 0.312906 0.462184
32 2 0.434035 0.319506 0.651861
49 1 0.104675 0.903698 0.702334
75 1 0.253811 0.420909 0.76972
76 1 0.473131 0.0484986 0.714708
87 1 0.179702 0.21713 0.606726
122 1 0.189216 0.196768 0.605288
124 1 0.283491 -0.00834868 0.618789
51 1 0.961556 0.0587576 0.769454
73 1 0.839719 0.49291 0.789054
74 1 0.684754 0.377253 0.704153
88 1 0.827737 0.0708817 0.618678
120 1 0.67501 0.00345278 0.629663
123 1 0.745964 0.176197 0.61789
15 2 0.245104 0.766207 0.527599
22 2 0.324642 0.768326 0.714703
52 1 0.364419 0.928139 0.828049
77 1 1.01937 0.840107 0.83018
89 1 0.514996 0.607222 0.645129
100 1 0.186822 0.442125 0.628714
101 1 -0.00164174 0.788709 0.599146
125 1 0.379345 0.575943 0.614278
17 2 0.764381 0.792917 0.527565
24 2 0.816004 0.830409 0.722588
50 1 0.565886 0.823379 0.747578
99 1 0.820571 0.563882 0.64474
121 1 0.599585 0.617339 0.640297
4 2 0.3077 0.162581 0.944709
21 2 0.227367 0.131069 0.755745
34 1 0.0445026 0.0656124 0.904141
58 1 0.305176 0.424942 0.916962
60 1 0.538447 0.0542144 0.879659
83 1 0.912879 0.275058 0.866554
93 1 0.464405 0.267698 0.813968
95 1 0.488188 0.268224 0.797355
115 1 0.0997332 0.294009 0.858773
6 2 0.718794 0.179563 0.973261
23 2 0.715252 0.135 0.773657
38 1 0.156431 1.00549 0.0305898
54 1 0.754771 0.457698 0.923703
56 1 0.541446 0.372902 0.928194
91 1 0.509372 0.271743 0.800796
105 1 0.912781 0.284678 0.875301
2 2 0.466013 0.621775 0.978247
19 2 0.519942 0.537941 0.796107
26 2 0.0274234 0.528696 0.910019
31 2 0.0592792 0.617417 0.727261
40 1 0.695752 0.921549 0.101305
62 1 -0.0164569 0.832852 0.96853
79 1 0.285684 0.682484 0.867162
107 1 0.254453 0.641239 0.85139
113 1 0.212888 0.709344 0.860381
36 1 0.579835 0.857677 0.961235
81 1 0.700039 0.718406 0.857938
103 1 0.826779 0.700868 0.869068
111 1 0.733876 0.6822 0.853505
ITEM: TIMESTEP
200
ITEM: NUMBER OF ATOMS
125
ITEM: BOX BOUNDS pp pp pp
0.0000000000000000e+00 9.6999999999999993e+00
0.0000000000000000e+00 9.6999999999999993e+00
0.0000000000000000e+00 1.5800000000000001e+01
ITEM: ATOMS id type xs ys zs
1 2 0.0197348 0.256867 0.0218493
8 2 1.00502 0.311239 0.210124
25 2 0.474427 0.338707 0.0776395
28 2 0.447498 0.250503 0.256819
33 1 0.79703 0.942385 0.89396
41 1 0.0882084 0.938023 0.154936
57 1 0.216807 0.452709 0.0551587
59 1 0.496122 0.0518836 0.0349072
65 1 0.262351 0.438094 0.203815
66 1 0.450394 0.0145306 0.176623
78 1 0.206736 0.183293 0.130735
106 1 0.233577 0.218364 0.118283
114 1 0.273177 0.165003 0.126215
37 1 0.90412 0.0154856 0.0434671
43 1 0.942033 0.0517224 0.271643
53 1 0.969405 0.521728 0.06531
55 1 0.758452 0.405706 0.0692231
63 1 0.819529 0.477298 0.303543
64 1 0.679698 0.366525 0.205129
80 1 0.815463 0.140681 0.155524
102 1 0.657475 0.158212 0.135289
112 1 0.804158 0.181985 0.132692
3 2 0.178993 0.716746 0.0391671
10 2 0.264289 0.732987 0.229683
39 1 0.416748 0.823434 0.0847287
44 1 0.436459 0.902912 0.309949
61 1 0.941511 0.782063 0.109458
67 1 0.0235106 0.81188 0.280433
82 1 0.584446 0.578115 0.126701
92 1 0.0610006 0.584359 0.191035
94 1 0.0156944 0.585176 0.202584
116 1 0.416042 0.586676 0.133917
5 2 0.761142 0.681989 0.020028
12 2 0.78273 0.71711 0.224151
35 1 0.327843 0.882338 0.958771
42 1 0.540861 0.787176 0.201599
90 1 1.00734 0.580665 0.204035
104 1 0.604335 0.574073 0.134828
9 2 0.211034 0.0518359 0.268826
16 2 0.24233 0.0830132 0.463342
45 1 0.0491343 1.01227 0.568339
70 1 0.255395 0.482466 0.48888
71 1 0.477615 0.0941584 0.557067
86 1 0.0893212 0.241443 0.364034
97 1 0.293189 0.408746 0.350127
98 1 0.480077 0.0936505 0.382561
119 1 0.102352 0.250921 0.362657
11 2 0.681799 0.0246091 0.268351
18 2 0.70976 0.0863907 0.465212
47 1 0.98048 0.0327397 0.420969
68 1 0.797309 0.465736 0.450402
69 1 0.661588 0.389269 0.559625
96 1 0.657954 0.294226 0.352112
109 1 0.885857 0.244446 0.359043
7 2 0.526813 0.551527 0.292013
14 2 0.530884 0.605924 0.483535
27 2 0.0699619 0.541125 0.355065
30 2 -0.00110603 0.555468 0.536687
48 1 0.484456 0.887825 0.456752
72 1 0.00451339 0.777408 0.440492
84 1 0.355157 0.71779 0.383407
110 1 0.317726 0.655787 0.385092
118 1 0.219212 0.836746 0.376264
46 1 0.502166 0.838477 0.598867
85 1 0.648366 0.784972 0.364919
108 1 0.819073 0.86984 0.367236
117 1 0.739724 0.675158 0.38419
13 2 0.961511 0.255672 0.51174
20 2 0.969387 0.306537 0.699084
29 2 0.464507 0.313532 0.459892
32 2 0.431581 0.319753 0.650227
49 1 0.105553 0.904722 0.702099
75 1 0.254317 0.421033 0.770408
76 1 0.473543 0.0492147 0.714479
87 1 0.183705 0.212599 0.604973
122 1 0.188494 0.201805 0.605173
124 1 0.28443 -0.00773338 0.618885
51 1 0.960924 0.0584701 0.769437
73 1 0.838161 0.492618 0.789373
74 1 0.682172 0.376946 0.704263
88 1 0.828834 0.070761 0.618332
120 1 0.675821 0.0052892 0.629467
123 1 0.745775 0.178215 0.617028
15 2 0.244665 0.766743 0.527933
22 2 0.325294 0.768219 0.715299
52 1 0.363193 0.928846 0.828096
77 1 1.02073 0.838752 0.829971
89 1 0.516494 0.608201 0.645143
100 1 0.188419 0.443108 0.629048
101 1 -0.00283356 0.790152 0.598898
125 1 0.380272 0.576604 0.61469
17 2 0.7631 0.792637 0.528009
24 2 0.814493 0.830899 0.722998
50 1 0.566439 0.823552 0.74956
99 1 0.817994 0.565132 0.645478
121 1 0.59653 0.617459 0.640688
4 2 0.308412 0.16285 0.944726
21 2 0.22741 0.131317 0.757258
34 1 0.0450564 0.0653682 0.904032
58 1 0.304094 0.425387 0.917357
60 1 0.538712 0.0535329 0.879419
83 1 0.913656 0.275696 0.86595
93 1 0.463848 0.264427 0.811909
95 1 0.490148 0.267877 0.798612
115 1 0.0990807 0.293609 0.858392
6 2 0.718606 0.179962 0.973011
23 2 0.714856 0.137194 0.773235
38 1 0.156715 1.00651 0.0312718
54 1 0.752903 0.457705 0.923361
56 1 0.538996 0.372237 0.928018
91 1 0.50757 0.271041 0.79874
105 1 0.912725 0.284473 0.87432
2 2 0.466247 0.622088 0.97752
19 2 0.518563 0.536957 0.795222
26 2 0.0261315 0.529424 0.910238
31 2 0.0589047 0.618082 0.727653
40 1 0.696245 0.920209 0.101801
62 1 -0.0164558 0.8337 0.968335
79 1 0.286459 0.6828 0.867713
107 1 0.254066 0.640827 0.85162
113 1 0.214136 0.708177 0.860788
36 1 0.582288 0.857425 0.96128
81 1 0.700721 0.71627 0.858074
103 1 0.825991 0.702655 0.869706
111 1 0.733707 0.68019 0.853287
ITEM: TIMESTEP
300
ITEM: NUMBER OF ATOMS
125
ITEM: BOX BOUNDS pp pp pp
0.0000000000000000e+00 9.6999999999999993e+00
0.0000000000000000e+00 9.6999999999999993e+00
0.0000000000000000e+00 1.5800000000000001e+01
ITEM: ATOMS id type xs ys zs
1 2 0.0197094 0.256953 0.0216022
8 2 1.00553 0.310607 0.209845
25 2 0.474725 0.339487 0.0777941
28 2 0.447623 0.250812 0.257145
33 1 0.797293 0.942508 0.893478
41 1 0.0873755 0.93756 0.155154
57 1 0.216648 0.452489 0.0549765
59 1 0.496365 0.0516445 0.0350189
65 1 0.26146 0.438432 0.203454
66 1 0.449213 0.015018 0.176851
78 1 0.206997 0.184186 0.130839
106 1 0.233851 0.218356 0.118141
114 1 0.272197 0.166527 0.126019
37 1 0.903705 0.0155159 0.043318
43 1 0.942269 0.0515788 0.27115
53 1 0.97048 0.522044 0.0661249
55 1 0.759969 0.405401 0.0692128
63 1 0.821299 0.477857 0.302285
64 1 0.679637 0.366172 0.20512
80 1 0.815371 0.141211 0.155195
102 1 0.657014 0.157882 0.135096
112 1 0.804358 0.18198 0.132699
3 2 0.179209 0.716623 0.0390298
10 2 0.263761 0.732262 0.22985
39 1 0.416182 0.823788 0.0847732
44 1 0.437007 0.901146 0.309987
61 1 0.941718 0.781157 0.109212
67 1 0.0233284 0.811707 0.280927
82 1 0.584896 0.581753 0.128399
92 1 0.0575536 0.585171 0.193377
94 1 0.0125938 0.584054 0.203807
116 1 0.416141 0.586862 0.133869
5 2 0.761808 0.681393 0.019847
12 2 0.783102 0.717479 0.224402
35 1 0.328113 0.882738 0.95891
42 1 0.540652 0.787563 0.200983
90 1 1.00996 0.580525 0.204086
104 1 0.604324 0.569418 0.133008
9 2 0.211656 0.0513917 0.268716
16 2 0.242482 0.0834526 0.463682
45 1 0.0491092 1.01271 0.568438
70 1 0.256529 0.483558 0.489115
71 1 0.478505 0.0943306 0.556691
86 1 0.0905588 0.241588 0.363709
97 1 0.291701 0.407653 0.350023
98 1 0.479666 0.0923367 0.382344
119 1 0.10154 0.249609 0.362542
11 2 0.68185 0.0246662 0.268101
18 2 0.710237 0.0862925 0.464868
47 1 0.981301 0.0323212 0.42037
68 1 0.798301 0.464793 0.449897
69 1 0.660949 0.390059 0.559405
96 1 0.65967 0.294396 0.351707
109 1 0.887171 0.244245 0.35876
7 2 0.526735 0.552027 0.292414
14 2 0.530874 0.606014 0.483543
27 2 0.0697918 0.540456 0.35624
30 2 -0.00161013 0.555163 0.537497
48 1 0.483991 0.887204 0.457048
72 1 0.00373465 0.776907 0.440828
84 1 0.354217 0.717182 0.383573
110 1 0.317588 0.656015 0.385259
118 1 0.218663 0.836596 0.37651
46 1 0.502322 0.839491 0.599549
85 1 0.649204 0.78584 0.365267
108 1 0.818722 0.869754 0.367324
117 1 0.74098 0.674543 0.384401
13 2 0.962687 0.255356 0.511372
20 2 0.969439 0.306956 0.698625
29 2 0.465044 0.313656 0.458848
32 2 0.43112 0.319491 0.649842
49 1 0.105857 0.905077 0.701994
75 1 0.254429 0.420948 0.77065
76 1 0.473754 0.0495178 0.714453
87 1 0.185094 0.211107 0.604274
122 1 0.187989 0.203639 0.605345
124 1 0.284836 -0.00728917 0.619036
51 1 0.96078 0.0584017 0.76944
73 1 0.837714 0.492323 0.789354
74 1 0.681185 0.377043 0.704051
88 1 0.829026 0.0707415 0.618179
120 1 0.676451 0.00627089 0.629336
123 1 0.745814 0.179291 0.61654
15 2 0.244338 0.767019 0.528197
22 2 0.325401 0.768311 0.715485
52 1 0.362671 0.929379 0.828179
77 1 1.02128 0.838292 0.829908
89 1 0.51748 0.608935 0.645124
100 1 0.189002 0.44325 0.629116
101 1 -0.00344257 0.790685 0.59899
125 1 0.380862 0.577076 0.614841
17 2 0.762443 0.792597 0.528339
24 2 0.814115 0.831264 0.723207
50 1 0.566189 0.82372 0.75056
99 1 0.816707 0.565867 0.645887
121 1 0.594931 0.617592 0.640792
4 2 0.308853 0.162919 0.944595
21 2 0.227185 0.131613 0.757208
34 1 0.0453351 0.0652963 0.904001
58 1 0.303352 0.425668 0.917633
60 1 0.539961 0.0530904 0.879029
83 1 0.913976 0.275913 0.865658
93 1 0.460983 0.268667 0.809921
95 1 0.49145 0.265626 0.799064
115 1 0.0986192 0.293754 0.85827
6 2 0.718367 0.180287 0.972806
23 2 0.714967 0.13775 0.773048
38 1 0.156776 1.00695 0.0317629
54 1 0.751898 0.457199 0.923248
56 1 0.537547 0.371426 0.927643
91 1 0.507529 0.267277 0.798733
105 1 0.912642 0.284541 0.873984
2 2 0.466737 0.622459 0.977385
19 2 0.517953 0.536493 0.79504
26 2 0.0251851 0.529742 0.910433
31 2 0.0586181 0.618493 0.727897
40 1 0.696613 0.919681 0.101963
62 1 -0.0162873 0.834107 0.968285
79 1 0.286589 0.682779 0.867918
107 1 0.253918 0.640717 0.851784
113 1 0.214725 0.707639 0.861005
36 1 0.583288 0.857475 0.961379
81 1 0.70108 0.715118 0.858087
103 1 0.825697 0.702676 0.869696
111 1 0.733167 0.680025 0.853297
ITEM: TIMESTEP
400
ITEM: NUMBER OF ATOMS
125
ITEM: BOX BOUNDS pp pp pp
0.0000000000000000e+00 9.6999999999999993e+00
0.0000000000000000e+00 9.6999999999999993e+00
0.0000000000000000e+00 1.5800000000000001e+01
ITEM: ATOMS id type xs ys zs
1 2 0.0197849 0.25696 0.0214243
8 2 1.00585 0.310204 0.209629
25 2 0.475288 0.340402 0.0779816
28 2 0.447649 0.250928 0.257359
33 1 0.797499 0.94258 0.893161
41 1 0.0868352 0.937164 0.15531
57 1 0.216499 0.452265 0.0548592
59 1 0.496588 0.0514351 0.0350679
65 1 0.26075 0.438663 0.203285
66 1 0.448426 0.0154043 0.176975
78 1 0.207196 0.184793 0.130892
106 1 0.233974 0.218435 0.118115
114 1 0.271582 0.167626 0.125968
37 1 0.903488 0.0155296 0.0432133
43 1 0.942375 0.0514262 0.270823
53 1 0.97138 0.522296 0.0667782
55 1 0.761485 0.40503 0.0691663
63 1 0.822441 0.478294 0.301424
64 1 0.679886 0.365654 0.205254
80 1 0.815308 0.141525 0.154983
102 1 0.656703 0.15758 0.134975
112 1 0.804494 0.181878 0.132696
3 2 0.179364 0.716511 0.0389365
10 2 0.263386 0.731711 0.229942
39 1 0.415806 0.82397 0.0848197
44 1 0.437374 0.899979 0.310002
61 1 0.941918 0.780464 0.109077
67 1 0.0232229 0.811529 0.28128
82 1 0.585506 0.580784 0.127832
92 1 0.0546978 0.585195 0.194987
94 1 0.0120711 0.582761 0.204091
116 1 0.416052 0.587 0.133815
5 2 0.762407 0.680997 0.0196748
12 2 0.783178 0.717755 0.224561
35 1 0.328266 0.883059 0.958981
42 1 0.540967 0.787925 0.200813
90 1 1.01052 0.581535 0.20472
104 1 0.602577 0.569294 0.132905
9 2 0.212062 0.0510797 0.268597
16 2 0.242533 0.0836641 0.463884
45 1 0.0492708 1.01292 0.568494
70 1 0.257211 0.484375 0.489259
71 1 0.479104 0.0944015 0.556441
86 1 0.0913768 0.241659 0.363445
97 1 0.290959 0.40715 0.349967
98 1 0.479396 0.0914665 0.382243
119 1 0.101103 0.248772 0.362419
11 2 0.6818 0.024718 0.267941
18 2 0.710572 0.0862514 0.464609
47 1 0.98189 0.0319593 0.419994
68 1 0.798948 0.464105 0.449521
69 1 0.66055 0.390633 0.559232
96 1 0.660719 0.294519 0.351459
109 1 0.888107 0.244163 0.358565
7 2 0.526776 0.552483 0.292643
14 2 0.530834 0.606102 0.483571
27 2 0.0696596 0.540042 0.357012
30 2 -0.00199961 0.554976 0.538018
48 1 0.483667 0.886733 0.457253
72 1 0.00322301 0.776543 0.441059
84 1 0.353524 0.716791 0.383706
110 1 0.317467 0.656184 0.385391
118 1 0.218308 0.83652 0.376683
46 1 0.502467 0.840222 0.600014
85 1 0.649823 0.786451 0.365561
108 1 0.818478 0.869744 0.367408
117 1 0.741841 0.674126 0.384583
13 2 0.963374 0.255148 0.511107
20 2 0.969464 0.307234 0.698336
29 2 0.465193 0.313597 0.458325
32 2 0.431021 0.319279 0.649679
49 1 0.106028 0.905261 0.701946
75 1 0.254425 0.420907 0.770749
76 1 0.473864 0.049528 0.71434
87 1 0.186588 0.210574 0.603536
122 1 0.187095 0.204496 0.605629
124 1 0.285115 -0.00704918 0.619136
51 1 0.960809 0.0583806 0.76944
73 1 0.837386 0.492111 0.789349
74 1 0.680675 0.37708 0.703897
88 1 0.829189 0.0707726 0.618073
120 1 0.676924 0.00697091 0.629211
123 1 0.745819 0.180006 0.616196
15 2 0.244098 0.767187 0.528404
22 2 0.325457 0.768374 0.715625
52 1 0.36226 0.929813 0.828231
77 1 1.02162 0.838044 0.829888
89 1 0.518237 0.609475 0.645126
100 1 0.189375 0.443373 0.629082
101 1 -0.00385274 0.791046 0.599076
125 1 0.381242 0.577341 0.614953
17 2 0.762016 0.792614 0.528581
24 2 0.813785 0.831524 0.723335
50 1 0.566011 0.823838 0.751248
99 1 0.815873 0.566414 0.646152
121 1 0.593868 0.61773 0.640865
4 2 0.309272 0.162977 0.944443
21 2 0.227078 0.131837 0.757171
34 1 0.0455455 0.0652739 0.90399
58 1 0.302809 0.425855 0.917851
60 1 0.539815 0.053195 0.878829
83 1 0.914135 0.276113 0.865453
93 1 0.460956 0.267934 0.809273
95 1 0.491906 0.265329 0.798833
115 1 0.0982732 0.293906 0.858181
6 2 0.718233 0.180481 0.97277
23 2 0.715559 0.138009 0.77277
38 1 0.156853 1.00724 0.0320954
54 1 0.751122 0.456763 0.923121
56 1 0.536606 0.370903 0.927322
91 1 0.505945 0.26691 0.798552
105 1 0.912607 0.28452 0.873811
2 2 0.467162 0.62289 0.977235
19 2 0.517589 0.536256 0.794971
26 2 0.0245108 0.529971 0.910634
31 2 0.0584461 0.618722 0.728076
40 1 0.696932 0.919294 0.102037
62 1 -0.0161475 0.834383 0.968262
79 1 0.286615 0.68275 0.86806
107 1 0.253799 0.640664 0.851889
113 1 0.215083 0.70731 0.861168
36 1 0.583986 0.857501 0.961473
81 1 0.701321 0.714402 0.858063
103 1 0.825535 0.702651 0.869659
111 1 0.732823 0.679943 0.85328
ITEM: TIMESTEP
500
ITEM: NUMBER OF ATOMS
125
ITEM: BOX BOUNDS pp pp pp
0.0000000000000000e+00 9.6999999999999993e+00
0.0000000000000000e+00 9.6999999999999993e+00
0.0000000000000000e+00 1.5800000000000001e+01
ITEM: ATOMS id type xs ys zs
1 2 0.0198003 0.256956 0.0213974
8 2 1.0059 0.310157 0.209598
25 2 0.475343 0.340475 0.0779918
28 2 0.447655 0.250958 0.257385
33 1 0.79753 0.942591 0.893115
41 1 0.0867567 0.937096 0.155333
57 1 0.216488 0.452228 0.0548432
59 1 0.496619 0.0514046 0.0350754
65 1 0.260629 0.43871 0.203256
66 1 0.448308 0.0154569 0.17699
78 1 0.207232 0.184891 0.130903
106 1 0.234001 0.218454 0.118113
114 1 0.271497 0.167788 0.125959
37 1 0.903462 0.0155296 0.043198
43 1 0.942387 0.0513994 0.270775
53 1 0.971634 0.522303 0.0668708
55 1 0.761677 0.405001 0.0691844
63 1 0.822607 0.478357 0.3013
64 1 0.679906 0.365603 0.205255
80 1 0.815299 0.141567 0.154951
102 1 0.656655 0.157538 0.134957
112 1 0.804516 0.181853 0.132696
3 2 0.179394 0.716493 0.0389209
10 2 0.263292 0.731609 0.229955
39 1 0.415752 0.823998 0.0848316
44 1 0.437426 0.899808 0.310002
61 1 0.941944 0.780395 0.109069
67 1 0.0232029 0.811504 0.281333
82 1 0.585609 0.580706 0.127779
92 1 0.0540757 0.585044 0.195019
94 1 0.0119694 0.582918 0.204529
116 1 0.416033 0.587028 0.133807
5 2 0.762479 0.680914 0.0196656
12 2 0.783175 0.717796 0.224569
35 1 0.32829 0.883108 0.958992
42 1 0.541002 0.787948 0.200767
90 1 1.01077 0.581489 0.204637
104 1 0.602373 0.569247 0.132884
9 2 0.212085 0.0510519 0.268542
16 2 0.242626 0.0836118 0.463946
45 1 0.0492769 1.01302 0.568516
70 1 0.257319 0.48447 0.489291
71 1 0.479136 0.0945174 0.556421
86 1 0.0914859 0.241643 0.363398
97 1 0.290872 0.407082 0.349965
98 1 0.47937 0.0913692 0.382236
119 1 0.101047 0.248627 0.362386
11 2 0.681791 0.0247265 0.267919
18 2 0.710622 0.0862462 0.464567
47 1 0.98198 0.031902 0.419929
68 1 0.799042 0.463999 0.449463
69 1 0.660492 0.390718 0.559227
96 1 0.660866 0.294537 0.351426
109 1 0.888249 0.244156 0.358534
7 2 0.526791 0.552547 0.292655
14 2 0.530825 0.606116 0.483574
27 2 0.0696408 0.539972 0.357132
30 2 -0.00206246 0.554949 0.538093
48 1 0.483622 0.88666 0.457291
72 1 0.00315019 0.776491 0.441095
84 1 0.353407 0.716742 0.383728
110 1 0.317445 0.656218 0.385413
118 1 0.218243 0.836474 0.376707
46 1 0.502492 0.840335 0.600084
85 1 0.64992 0.786543 0.365611
108 1 0.81844 0.869745 0.367421
117 1 0.741971 0.674064 0.384612
13 2 0.963242 0.255225 0.511059
20 2 0.969427 0.307267 0.698283
29 2 0.465322 0.313632 0.458237
32 2 0.43119 0.319327 0.649739
49 1 0.106047 0.90528 0.701945
75 1 0.254419 0.420882 0.770744
76 1 0.473867 0.04953 0.714311
87 1 0.186484 0.210407 0.603497
122 1 0.187083 0.2045 0.605545
124 1 0.285169 -0.0070988 0.61919
51 1 0.960824 0.0583766 0.769441
73 1 0.837337 0.492081 0.789351
74 1 0.680532 0.377079 0.703855
88 1 0.829212 0.070778 0.618052
120 1 0.677 0.00707853 0.629188
123 1 0.745844 0.180115 0.616141
15 2 0.244063 0.767191 0.528433
22 2 0.325465 0.768382 0.715647
52 1 0.362192 0.929871 0.828236
77 1 1.02166 0.838011 0.829887
89 1 0.518358 0.609584 0.645126
100 1 0.189506 0.443364 0.629085
101 1 -0.00391533 0.791099 0.599091
125 1 0.381308 0.577335 0.614982
17 2 0.761953 0.79262 0.528618
24 2 0.813736 0.831564 0.723354
50 1 0.56598 0.823854 0.751351
99 1 0.81575 0.5665 0.646192
121 1 0.59371 0.617756 0.640877
4 2 0.309324 0.162998 0.944438
21 2 0.227205 0.131964 0.75709
34 1 0.0455803 0.0652727 0.903988
58 1 0.302726 0.425895 0.917883
60 1 0.539813 0.0532033 0.878797
83 1 0.914173 0.276098 0.865442
93 1 0.460987 0.267841 0.809197
95 1 0.491973 0.265292 0.79879
115 1 0.0982251 0.293931 0.858167
6 2 0.718214 0.180507 0.972759
23 2 0.715573 0.138067 0.772747
38 1 0.156871 1.00728 0.0321459
54 1 0.751003 0.456694 0.923101
56 1 0.536453 0.370826 0.927278
91 1 0.505763 0.266848 0.798513
105 1 0.912586 0.284559 0.873768
2 2 0.467222 0.622938 0.977213
19 2 0.517544 0.53621 0.79496
26 2 0.024408 0.530005 0.910666
31 2 0.0584209 0.618754 0.728105
40 1 0.696989 0.919237 0.102045
62 1 -0.0161241 0.834422 0.96826
79 1 0.286616 0.682748 0.86808
107 1 0.253777 0.640656 0.851907
113 1 0.21513 0.707261 0.861191
36 1 0.58409 0.857514 0.961484
81 1 0.701355 0.714298 0.858059
103 1 0.825514 0.702647 0.869649
111 1 0.732776 0.679931 0.853277
ITEM: TIMESTEP
600
ITEM: NUMBER OF ATOMS
125
ITEM: BOX BOUNDS pp pp pp
0.0000000000000000e+00 9.6999999999999993e+00
0.0000000000000000e+00 9.6999999999999993e+00
0.0000000000000000e+00 1.5800000000000001e+01
ITEM: ATOMS id type xs ys zs
1 2 0.0198154 0.256953 0.0213704
8 2 1.00594 0.310102 0.209567
25 2 0.475392 0.340545 0.0779996
28 2 0.447662 0.25099 0.25741
33 1 0.797561 0.942601 0.893069
41 1 0.0866782 0.937027 0.155355
57 1 0.216479 0.452191 0.0548276
59 1 0.496651 0.0513737 0.0350828
65 1 0.260521 0.438754 0.203237
66 1 0.44819 0.0155085 0.177005
78 1 0.20727 0.184989 0.130913
106 1 0.234028 0.218475 0.11811
114 1 0.271413 0.16795 0.12595
37 1 0.903438 0.0155298 0.0431828
43 1 0.942397 0.0513725 0.270727
53 1 0.971731 0.522331 0.0669817
55 1 0.761865 0.404973 0.0691965
63 1 0.82277 0.478419 0.301176
64 1 0.679924 0.365554 0.205254
80 1 0.81529 0.141608 0.15492
102 1 0.656607 0.157497 0.134938
112 1 0.804537 0.181827 0.132697
3 2 0.179423 0.716476 0.0389049
10 2 0.263215 0.731516 0.229967
39 1 0.415698 0.824027 0.0848432
44 1 0.437477 0.899639 0.310003
61 1 0.941974 0.780288 0.109056
67 1 0.0231868 0.811481 0.281387
82 1 0.585694 0.580582 0.127722
92 1 0.0537663 0.585085 0.19543
94 1 0.0117626 0.582862 0.20458
116 1 0.416015 0.587055 0.133798
5 2 0.762552 0.680829 0.0196577
12 2 0.783172 0.717833 0.224577
35 1 0.328314 0.883157 0.959003
42 1 0.541034 0.787969 0.20072
90 1 1.01093 0.581474 0.204545
104 1 0.602196 0.569248 0.132872
9 2 0.212116 0.0510278 0.268491
16 2 0.242697 0.0835519 0.464
45 1 0.0492826 1.01311 0.568536
70 1 0.257427 0.484562 0.489322
71 1 0.479169 0.0946295 0.556402
86 1 0.0916088 0.241628 0.363348
97 1 0.290788 0.407017 0.349964
98 1 0.479345 0.091271 0.38223
119 1 0.101002 0.248499 0.362356
11 2 0.681782 0.024735 0.267897
18 2 0.710669 0.0862375 0.464526
47 1 0.982071 0.0318473 0.419867
68 1 0.799132 0.463894 0.449403
69 1 0.660438 0.390804 0.559221
96 1 0.661011 0.294555 0.351392
109 1 0.888391 0.244149 0.358502
7 2 0.526806 0.552611 0.292667
14 2 0.530815 0.606131 0.483577
27 2 0.0696269 0.539905 0.35725
30 2 -0.00212326 0.554923 0.538169
48 1 0.483577 0.886589 0.457328
72 1 0.0030773 0.776439 0.44113
84 1 0.353292 0.716692 0.383749
110 1 0.317422 0.656253 0.385435
118 1 0.218178 0.836429 0.376731
46 1 0.502519 0.840449 0.600154
85 1 0.650017 0.786635 0.365661
108 1 0.818402 0.869747 0.367434
117 1 0.742101 0.674003 0.384641
13 2 0.963123 0.255296 0.51101
20 2 0.969394 0.307299 0.698231
29 2 0.465443 0.313666 0.458151
32 2 0.431344 0.319372 0.649787
49 1 0.106066 0.9053 0.701944
75 1 0.254415 0.420859 0.77074
76 1 0.473874 0.0495297 0.714283
87 1 0.186383 0.210246 0.603458
122 1 0.187072 0.20451 0.605464
124 1 0.285222 -0.00714637 0.619241
51 1 0.96084 0.0583747 0.769443
73 1 0.837287 0.492049 0.78935
74 1 0.680397 0.37708 0.703816
88 1 0.829236 0.0707848 0.61803
120 1 0.677076 0.00718701 0.629164
123 1 0.745866 0.180222 0.616087
15 2 0.244028 0.767193 0.528463
22 2 0.325473 0.768386 0.715669
52 1 0.362124 0.929928 0.828241
77 1 1.02171 0.837979 0.829886
89 1 0.51848 0.60969 0.645128
100 1 0.189631 0.443352 0.629087
101 1 -0.00397708 0.791153 0.599105
125 1 0.381373 0.577331 0.61501
17 2 0.76189 0.792626 0.528655
24 2 0.813686 0.831605 0.723372
50 1 0.56595 0.823869 0.751454
99 1 0.815628 0.566586 0.646231
121 1 0.593553 0.617785 0.640888
4 2 0.309374 0.163018 0.944433
21 2 0.22732 0.132088 0.757014
34 1 0.0456161 0.0652719 0.903987
58 1 0.302643 0.425936 0.917914
60 1 0.539814 0.0532095 0.878765
83 1 0.914202 0.276109 0.865425
93 1 0.461012 0.267756 0.809111
95 1 0.492038 0.265245 0.798753
115 1 0.0981784 0.293955 0.858152
6 2 0.718196 0.180533 0.972747
23 2 0.715588 0.138125 0.772724
38 1 0.15689 1.00733 0.0321963
54 1 0.750885 0.456624 0.923081
56 1 0.536302 0.370749 0.927234
91 1 0.505589 0.266787 0.79848
105 1 0.912574 0.284573 0.873732
2 2 0.467281 0.622984 0.977191
19 2 0.5175 0.536167 0.794951
26 2 0.0243052 0.530038 0.910699
31 2 0.0583966 0.618784 0.728133
40 1 0.697048 0.91918 0.102053
62 1 -0.0161007 0.834462 0.968259
79 1 0.286615 0.682746 0.868101
107 1 0.253755 0.640648 0.851925
113 1 0.215177 0.707213 0.861215
36 1 0.584193 0.857528 0.961496
81 1 0.701389 0.714195 0.858055
103 1 0.825492 0.702643 0.86964
111 1 0.732729 0.679921 0.853273
ITEM: TIMESTEP
682
ITEM: NUMBER OF ATOMS
125
ITEM: BOX BOUNDS pp pp pp
0.0000000000000000e+00 9.6999999999999993e+00
0.0000000000000000e+00 9.6999999999999993e+00
0.0000000000000000e+00 1.5800000000000001e+01
ITEM: ATOMS id type xs ys zs
1 2 0.0198218 0.256951 0.0213596
8 2 1.00596 0.310078 0.209557
25 2 0.47541 0.34057 0.0780022
28 2 0.447664 0.251003 0.25742
33 1 0.797573 0.942606 0.893051
41 1 0.0866463 0.936998 0.155364
57 1 0.216476 0.452176 0.0548208