ITEM: TIMESTEP
0
ITEM: NUMBER OF ATOMS
125
ITEM: BOX BOUNDS pp pp pp
0.0000000000000000e+00 9.6999999999999993e+00
0.0000000000000000e+00 9.6999999999999993e+00
0.0000000000000000e+00 1.5800000000000001e+01
ITEM: ATOMS id type xs ys zs
1 2 0.0198218 0.256951 0.0213596
8 2 0.00595534 0.310078 0.209557
25 2 0.47541 0.34057 0.0780022
57 1 0.216476 0.452176 0.0548208
59 1 0.496663 0.0513612 0.0350858
65 1 0.260478 0.438772 0.20323
66 1 0.448143 0.0155289 0.17701
78 1 0.207286 0.185029 0.130916
106 1 0.234039 0.218483 0.118109
114 1 0.27138 0.168015 0.125946
38 1 0.156897 0.00734302 0.0322165
37 1 0.903428 0.0155294 0.0431768
55 1 0.761938 0.404962 0.0692014
64 1 0.67993 0.365536 0.205253
80 1 0.815286 0.141623 0.154907
102 1 0.656588 0.157481 0.134931
112 1 0.804546 0.181817 0.132698
41 1 0.0866463 0.936998 0.155364
3 2 0.179436 0.716469 0.0388983
10 2 0.263186 0.73148 0.229973
39 1 0.415676 0.824038 0.0848478
92 1 0.0535747 0.585075 0.195519
94 1 0.0117367 0.582803 0.204603
116 1 0.416007 0.587065 0.133794
90 1 0.010977 0.58153 0.204595
53 1 0.971791 0.522346 0.067014
61 1 0.941988 0.780249 0.109049
82 1 0.585728 0.580537 0.127702
5 2 0.762579 0.680795 0.0196545
12 2 0.78317 0.717848 0.224581
42 1 0.541046 0.787977 0.2007
104 1 0.602129 0.569247 0.132865
40 1 0.697072 0.919157 0.102055
28 2 0.447664 0.251003 0.25742
9 2 0.21213 0.0510172 0.268472
16 2 0.242725 0.0835295 0.464019
70 1 0.25747 0.484597 0.489334
86 1 0.0916569 0.241622 0.363329
97 1 0.290756 0.406992 0.349964
98 1 0.479335 0.0912311 0.382227
119 1 0.100985 0.248446 0.362345
29 2 0.465489 0.313679 0.458118
43 1 0.942401 0.0513615 0.270708
63 1 0.822834 0.478444 0.301127
11 2 0.681778 0.0247383 0.267888
18 2 0.710686 0.0862326 0.464509
47 1 0.982109 0.0318264 0.419843
68 1 0.799168 0.463852 0.449379
96 1 0.66107 0.294562 0.351378
109 1 0.888447 0.244147 0.358489
44 1 0.437497 0.899572 0.310003
67 1 0.0231783 0.811471 0.281409
27 2 0.0696217 0.539875 0.357298
48 1 0.483558 0.886561 0.457343
72 1 0.00304788 0.776418 0.441145
84 1 0.353247 0.716672 0.383757
110 1 0.317412 0.656267 0.385444
118 1 0.218153 0.836411 0.37674
7 2 0.526812 0.552636 0.292671
14 2 0.530811 0.606138 0.483578
85 1 0.650057 0.786672 0.365681
108 1 0.818387 0.869748 0.367439
117 1 0.742153 0.673979 0.384653
45 1 0.0492847 0.0131485 0.568544
71 1 0.479183 0.094673 0.556395
32 2 0.4314 0.319389 0.649801
76 1 0.473879 0.0495285 0.714271
87 1 0.186344 0.210186 0.603442
122 1 0.187069 0.204515 0.605433
100 1 0.189679 0.443346 0.629088
69 1 0.660418 0.390839 0.559217
13 2 0.96308 0.255322 0.51099
20 2 0.969383 0.307311 0.698211
74 1 0.680346 0.377081 0.703802
88 1 0.829246 0.0707881 0.618022
120 1 0.677105 0.00723118 0.629154
123 1 0.745873 0.180263 0.616066
49 1 0.106074 0.905308 0.701944
124 1 0.285244 0.992835 0.61926
15 2 0.244013 0.767192 0.528475
22 2 0.325476 0.768387 0.715678
125 1 0.3814 0.577331 0.615021
31 2 0.0583871 0.618796 0.728144
30 2 0.997853 0.554913 0.5382
46 1 0.50253 0.840495 0.600182
89 1 0.51853 0.609732 0.645129
101 1 0.995998 0.791175 0.599111
17 2 0.761865 0.792628 0.52867
24 2 0.813666 0.831622 0.723379
99 1 0.815579 0.566621 0.646247
121 1 0.59349 0.617798 0.640892
75 1 0.254413 0.42085 0.770739
4 2 0.309393 0.163027 0.94443
21 2 0.227362 0.132137 0.756986
34 1 0.045631 0.0652717 0.903987
58 1 0.302609 0.425953 0.917926
93 1 0.461022 0.267719 0.809077
95 1 0.492064 0.265228 0.798738
115 1 0.0981602 0.293964 0.858146
51 1 0.960847 0.0583749 0.769443
73 1 0.837267 0.492036 0.78935
60 1 0.539814 0.053211 0.878753
83 1 0.914211 0.276118 0.865416
6 2 0.718189 0.180543 0.972742
23 2 0.715594 0.138147 0.772715
54 1 0.750837 0.456596 0.923073
56 1 0.536241 0.370719 0.927217
91 1 0.505522 0.266765 0.798467
105 1 0.912571 0.284574 0.87372
35 1 0.328324 0.883177 0.959008
52 1 0.362096 0.929952 0.828242
77 1 0.0217242 0.837967 0.829886
2 2 0.467305 0.623002 0.977183
26 2 0.024265 0.530052 0.910711
79 1 0.286614 0.682745 0.86811
107 1 0.253746 0.640645 0.851932
113 1 0.215195 0.707194 0.861224
33 1 0.797573 0.942606 0.893051
50 1 0.565937 0.823876 0.751496
19 2 0.517483 0.536151 0.794948
62 1 0.983908 0.834476 0.968258
36 1 0.584235 0.857534 0.961501
81 1 0.701403 0.714154 0.858053
103 1 0.825484 0.702641 0.869636
111 1 0.73271 0.679917 0.853272
ITEM: TIMESTEP
100
ITEM: NUMBER OF ATOMS
125
ITEM: BOX BOUNDS pp pp pp
0.0000000000000000e+00 9.6999999999999993e+00
0.0000000000000000e+00 9.6999999999999993e+00
0.0000000000000000e+00 1.5800000000000001e+01
ITEM: ATOMS id type xs ys zs
1 2 0.0269387 0.238429 0.0218007
8 2 0.988471 0.324969 0.203885
25 2 0.480361 0.3442 0.0742098
57 1 0.205883 0.453675 0.0613027
59 1 0.499094 0.0489237 0.036674
65 1 0.238884 0.441057 0.204881
66 1 0.443804 0.00613843 0.180039
78 1 0.231501 0.21394 0.139686
106 1 0.26241 0.210627 0.116784
114 1 0.291369 0.174456 0.122048
38 1 0.165564 0.0110383 0.0399734
37 1 0.904136 0.0254134 0.0386231
55 1 0.752474 0.394955 0.0788334
64 1 0.677932 0.363202 0.204696
80 1 0.820881 0.146084 0.15379
102 1 0.653172 0.152343 0.134483
112 1 0.801016 0.180771 0.131629
41 1 0.0869885 0.925878 0.155166
3 2 0.175324 0.714051 0.0391939
10 2 0.260404 0.730113 0.226689
39 1 0.408506 0.825458 0.0849958
92 1 0.0417821 0.591631 0.200252
94 1 0.96197 0.575437 0.170624
116 1 0.410665 0.583459 0.133934
90 1 0.00901081 0.652747 0.220414
53 1 0.926277 0.470892 0.0294048
61 1 0.91544 0.82415 0.103796
82 1 0.556498 0.572964 0.139778
5 2 0.766114 0.672854 0.023763
12 2 0.776667 0.723182 0.224898
42 1 0.541325 0.789124 0.195877
104 1 0.616143 0.573238 0.118732
40 1 0.699761 0.918042 0.102113
28 2 0.441495 0.249843 0.251305
9 2 0.209231 0.0455315 0.252308
16 2 0.262304 0.0248986 0.420958
70 1 0.291152 0.490509 0.492284
86 1 0.101777 0.21984 0.367032
97 1 0.304547 0.393898 0.343341
98 1 0.503479 0.0853068 0.376051
119 1 0.141604 0.258647 0.407394
29 2 0.466265 0.308921 0.454429
43 1 0.933329 0.0776138 0.258291
63 1 0.844853 0.485471 0.294128
11 2 0.678685 0.0252181 0.267135
18 2 0.715398 0.0870285 0.461542
47 1 0.986484 0.0380404 0.412371
68 1 0.804816 0.452836 0.441248
96 1 0.666945 0.29802 0.34753
109 1 0.904534 0.255287 0.358762
44 1 0.43716 0.880138 0.314468
67 1 0.0214142 0.881252 0.298106
27 2 0.0799115 0.485421 0.400824
48 1 0.481739 0.872964 0.459179
72 1 0.995495 0.773037 0.444458
84 1 0.336867 0.695197 0.385915
110 1 0.322045 0.65678 0.382855
118 1 0.204579 0.788705 0.368913
7 2 0.526225 0.550563 0.292295
14 2 0.540196 0.61074 0.480726
85 1 0.663873 0.795099 0.371334
108 1 0.813435 0.873974 0.369255
117 1 0.74742 0.666946 0.3847
45 1 0.0640608 0.0150548 0.555515
71 1 0.485075 0.0915525 0.549409
32 2 0.442183 0.33683 0.646678
76 1 0.473637 0.0440647 0.709069
87 1 0.197663 0.305079 0.652637
122 1 0.244199 0.189903 0.630154
100 1 0.210327 0.5337 0.625735
69 1 0.658511 0.40316 0.553141
13 2 0.95965 0.254261 0.522908
20 2 0.903633 0.324795 0.708383
74 1 0.666329 0.39726 0.697329
88 1 0.832629 0.0653658 0.615777
120 1 0.68113 0.0127551 0.626547
123 1 0.727827 0.18952 0.610293
49 1 0.107066 0.911981 0.699176
124 1 0.284364 0.997724 0.608536
15 2 0.236719 0.767963 0.530264
22 2 0.324456 0.771067 0.714554
125 1 0.429345 0.604709 0.613979
31 2 0.0548174 0.622383 0.728388
30 2 0.986761 0.555111 0.547073
46 1 0.503975 0.844385 0.604982
89 1 0.54623 0.615356 0.644873
101 1 0.993375 0.794269 0.602462
17 2 0.760384 0.795053 0.53099
24 2 0.813183 0.834239 0.72526
99 1 0.804175 0.583739 0.64938
121 1 0.579561 0.619909 0.643015
75 1 0.263246 0.430052 0.779383
4 2 0.311986 0.164342 0.945223
21 2 0.23646 0.106884 0.770277
34 1 0.0498402 0.0621105 0.907226
58 1 0.290608 0.427187 0.924101
93 1 0.44953 0.272401 0.798893
95 1 0.469788 0.226456 0.812475
115 1 0.0975963 0.292787 0.851659
51 1 0.965608 0.0685073 0.771052
73 1 0.819635 0.511366 0.796102
60 1 0.544306 0.0291865 0.882353
83 1 0.913343 0.276227 0.869464
6 2 0.716555 0.181029 0.972016
23 2 0.70992 0.13062 0.772173
54 1 0.744984 0.447556 0.925323
56 1 0.524865 0.369677 0.926452
91 1 0.525918 0.281059 0.795273
105 1 0.913458 0.281934 0.875403
35 1 0.330537 0.886598 0.961017
52 1 0.362399 0.91587 0.830857
77 1 0.0344326 0.833108 0.82982
2 2 0.469669 0.62442 0.978726
26 2 0.0362283 0.540945 0.882895
79 1 0.288184 0.679291 0.866169
107 1 0.264669 0.644016 0.852441
113 1 0.237249 0.696278 0.862839
33 1 0.797986 0.951995 0.885943
50 1 0.565072 0.823299 0.761628
19 2 0.509769 0.544751 0.796709
62 1 0.967905 0.825907 0.963791
36 1 0.595745 0.850873 0.966025
81 1 0.716187 0.70775 0.860865
103 1 0.820913 0.706597 0.872493
111 1 0.735073 0.685328 0.85675
ITEM: TIMESTEP
200
ITEM: NUMBER OF ATOMS
125
ITEM: BOX BOUNDS pp pp pp
0.0000000000000000e+00 9.6999999999999993e+00
0.0000000000000000e+00 9.6999999999999993e+00
0.0000000000000000e+00 1.5800000000000001e+01
ITEM: ATOMS id type xs ys zs
1 2 0.0305391 0.244948 0.0159362
8 2 1.00346 0.32419 0.198582
25 2 0.481353 0.344705 0.0703076
57 1 0.216404 0.445543 0.0661576
59 1 0.495302 0.0390233 0.0405379
65 1 0.229205 0.461513 0.221722
66 1 0.445568 0.0121695 0.180234
78 1 0.239583 0.242812 0.131365
106 1 0.25655 0.221329 0.11804
114 1 0.27556 0.195839 0.122565
38 1 0.162781 -0.00131914 0.0488012
37 1 0.893631 0.00817181 0.0386356
55 1 0.778328 0.410428 0.0773934
64 1 0.697106 0.375357 0.210075
80 1 0.806738 0.136157 0.149931
102 1 0.661778 0.173454 0.130179
112 1 0.797152 0.176014 0.125953
41 1 0.0770928 0.885033 0.163864
3 2 0.156642 0.700055 0.030552
10 2 0.254343 0.725951 0.232529
39 1 0.374812 0.815955 0.095196
92 1 0.0146235 0.595939 0.179156
94 1 0.995245 0.614542 0.194714
116 1 0.401652 0.571221 0.137421
90 1 0.017396 0.654688 0.192327
53 1 0.989311 0.489949 0.0545679
61 1 0.898803 0.804948 0.0965816
82 1 0.540355 0.578763 0.135676
5 2 0.759357 0.650597 0.0287589
12 2 0.774109 0.734519 0.235599
42 1 0.530527 0.788004 0.201154
104 1 0.565314 0.581882 0.129711
40 1 0.68615 0.916271 0.110877
28 2 0.447961 0.249983 0.251587
9 2 0.200294 0.0497152 0.24327
16 2 0.280763 0.010494 0.441336
70 1 0.305157 0.491256 0.502167
86 1 0.17438 0.240117 0.380406
97 1 0.298413 0.419134 0.356961
98 1 0.501913 0.0647276 0.372444
119 1 0.165319 0.218824 0.396314
29 2 0.463429 0.291974 0.444895
43 1 0.953031 0.0770471 0.270329
63 1 0.844043 0.500603 0.291358
11 2 0.693331 0.0301749 0.260952
18 2 0.732842 0.0943474 0.458657
47 1 0.995522 0.0409315 0.411694
68 1 0.803294 0.452553 0.44022
96 1 0.673497 0.283281 0.353787
109 1 0.902971 0.257016 0.366741
44 1 0.407524 0.879658 0.315711
67 1 0.0292572 0.845843 0.301679
27 2 0.0603788 0.473909 0.37593
48 1 0.497825 0.869609 0.460338
72 1 0.9762 0.764607 0.449095
84 1 0.335557 0.664712 0.383029
110 1 0.30998 0.644531 0.383465
118 1 0.189677 0.697684 0.381194
7 2 0.529323 0.547987 0.293201
14 2 0.549909 0.605387 0.463304
85 1 0.687 0.808731 0.380969
108 1 0.792934 0.854625 0.378824
117 1 0.776396 0.68063 0.393229
45 1 0.0823476 -0.0119045 0.539566
71 1 0.485256 0.100091 0.550038
32 2 0.428498 0.343922 0.635038
76 1 0.471425 0.0498768 0.701205
87 1 0.146092 0.328631 0.624234
122 1 0.159972 0.196221 0.622163
100 1 0.246229 0.543572 0.635927
69 1 0.686076 0.412832 0.558292
13 2 0.977903 0.238755 0.523954
20 2 0.948285 0.323907 0.706866
74 1 0.68177 0.384039 0.702274
88 1 0.842704 0.0243026 0.611548
120 1 0.695243 0.0392878 0.617111
123 1 0.689647 0.200954 0.611893
49 1 0.0905381 0.937728 0.692019
124 1 0.290388 0.985387 0.609299
15 2 0.230908 0.742977 0.527857
22 2 0.315896 0.789659 0.711629
125 1 0.477758 0.61002 0.610357
31 2 0.0471622 0.647207 0.722252
30 2 0.964416 0.552551 0.553388
46 1 0.51714 0.86633 0.606633
89 1 0.563248 0.578756 0.628624
101 1 0.972907 0.817278 0.599238
17 2 0.742961 0.801763 0.541576
24 2 0.813163 0.846269 0.73689
99 1 0.798641 0.605366 0.667247
121 1 0.577263 0.683285 0.668467
75 1 0.223505 0.422063 0.758858
4 2 0.325286 0.162624 0.943124
21 2 0.232259 0.113522 0.761485
34 1 0.0586173 0.0491458 0.90541
58 1 0.277432 0.436582 0.925989
93 1 0.428592 0.289565 0.795495
95 1 0.467049 0.225367 0.801702
115 1 0.0822885 0.27921 0.853229
51 1 0.955821 0.0774564 0.775449
73 1 0.807092 0.510639 0.806876
60 1 0.543475 0.0388146 0.890009
83 1 0.912323 0.282305 0.865556
6 2 0.714278 0.181768 0.966252
23 2 0.699762 0.128267 0.765082
54 1 0.744388 0.447327 0.932552
56 1 0.517361 0.383108 0.917289
91 1 0.491667 0.26499 0.787906
105 1 0.917965 0.296641 0.878155
35 1 0.330229 0.879454 0.963471
52 1 0.377588 0.916055 0.833831
77 1 0.0757221 0.826253 0.828866
2 2 0.464439 0.631006 0.982279
26 2 0.0259806 0.526191 0.899982
79 1 0.298094 0.674629 0.865032
107 1 0.286134 0.65651 0.858662
113 1 0.271326 0.685683 0.866069
33 1 0.791573 0.954668 0.891457
50 1 0.565247 0.847058 0.768893
19 2 0.503028 0.551995 0.795866
62 1 0.972825 0.824173 0.956951
36 1 0.597648 0.855417 0.972954
81 1 0.697662 0.7135 0.865943
103 1 0.825148 0.708945 0.880517
111 1 0.793627 0.710765 0.880078
ITEM: TIMESTEP
300
ITEM: NUMBER OF ATOMS
125
ITEM: BOX BOUNDS pp pp pp
0.0000000000000000e+00 9.6999999999999993e+00
0.0000000000000000e+00 9.6999999999999993e+00
0.0000000000000000e+00 1.5800000000000001e+01
ITEM: ATOMS id type xs ys zs
1 2 0.0323952 0.253745 0.0209441
8 2 1.01851 0.305135 0.202126
25 2 0.492007 0.340671 0.0721687
57 1 0.246884 0.449164 0.0533051
59 1 0.497054 0.0545605 0.0377523
65 1 0.234738 0.456451 0.20348
66 1 0.448849 0.0155151 0.193402
78 1 0.23045 0.208206 0.140978
106 1 0.252322 0.214929 0.12762
114 1 0.271478 0.187349 0.130575
38 1 0.168127 0.0149618 0.0472483
37 1 0.902083 0.0176752 0.0305271
55 1 0.78399 0.390459 0.0637615
64 1 0.65027 0.361137 0.189998
80 1 0.831158 0.149123 0.144486
102 1 0.658894 0.145192 0.129253
112 1 0.82489 0.171436 0.130898
41 1 0.0914737 0.899588 0.159625
3 2 0.166584 0.710146 0.0375206
10 2 0.254815 0.732401 0.233681
39 1 0.355461 0.855769 0.109241
92 1 -0.0240158 0.644022 0.198033
94 1 0.998449 0.593585 0.206481
116 1 0.420072 0.596184 0.135723
90 1 0.0327039 0.586566 0.210102
53 1 1.02045 0.50029 0.0773014
61 1 0.911173 0.809873 0.0974718
82 1 0.545631 0.584574 0.133588
5 2 0.765454 0.651242 0.0324526
12 2 0.767276 0.740892 0.234062
42 1 0.525965 0.793857 0.20868
104 1 0.582782 0.578508 0.12666
40 1 0.689057 0.918465 0.110875
28 2 0.437368 0.251491 0.246726
9 2 0.204048 0.0478952 0.266776
16 2 0.274612 0.0272112 0.448247
70 1 0.249616 0.459099 0.490033
86 1 0.211429 0.253452 0.375876
97 1 0.318861 0.443992 0.341279
98 1 0.505219 0.062364 0.371872
119 1 0.132829 0.233734 0.369087
29 2 0.455111 0.281047 0.449392
43 1 0.951244 0.0288754 0.240252
63 1 0.823223 0.472371 0.278883
11 2 0.694983 0.0398521 0.265413
18 2 0.728521 0.0810927 0.45525
47 1 1.01856 0.0139443 0.387379
68 1 0.799514 0.424791 0.42276
96 1 0.657799 0.301218 0.338285
109 1 0.894623 0.222637 0.340317
44 1 0.390393 0.883302 0.327109
67 1 0.0082211 0.801819 0.30441
27 2 0.0594084 0.491221 0.359022
48 1 0.484175 0.844382 0.454808
72 1 0.996787 0.783892 0.460251
84 1 0.34789 0.67049 0.383161
110 1 0.321797 0.660459 0.386808
118 1 0.222798 0.737513 0.38842
7 2 0.541686 0.543467 0.284534
14 2 0.545173 0.585861 0.47
85 1 0.710707 0.839433 0.387801
108 1 0.810063 0.869409 0.380961
117 1 0.798377 0.668378 0.398715
45 1 0.051756 -0.0181495 0.540761
71 1 0.489287 0.0960546 0.55079
32 2 0.424226 0.32653 0.636125
76 1 0.473804 0.0650658 0.698092
87 1 0.159143 0.324876 0.601395
122 1 0.18499 0.238963 0.591544
100 1 0.238601 0.542694 0.642001
69 1 0.693748 0.39199 0.548688
13 2 0.985292 0.240036 0.49944
20 2 0.964503 0.323059 0.690887
74 1 0.663217 0.390943 0.695474
88 1 0.851743 0.0382262 0.605235
120 1 0.696414 0.0407475 0.619394
123 1 0.747048 0.189519 0.610321
49 1 0.065376 0.939878 0.69197
124 1 0.264327 1.00394 0.609926
15 2 0.237238 0.738955 0.537375
22 2 0.328774 0.790731 0.720839
125 1 0.475177 0.626197 0.625441
31 2 0.0480925 0.634488 0.740232
30 2 0.965204 0.533082 0.540763
46 1 0.478477 0.866591 0.595759
89 1 0.564603 0.579621 0.634338
101 1 0.969248 0.781322 0.606479
17 2 0.724595 0.789896 0.551859
24 2 0.810854 0.849607 0.743952
99 1 0.802073 0.577982 0.654863
121 1 0.587107 0.715589 0.686184
75 1 0.207601 0.419264 0.762707
4 2 0.308384 0.163928 0.943008
21 2 0.219335 0.138214 0.747411
34 1 0.0885747 0.0430921 0.920005
58 1 0.285854 0.418259 0.904374
93 1 0.433543 0.301036 0.794279
95 1 0.455916 0.262323 0.7945
115 1 0.0815776 0.273173 0.857075
51 1 0.956835 0.0652827 0.807708
73 1 0.81298 0.503479 0.792852
60 1 0.53391 0.0739292 0.885154
83 1 0.894781 0.285405 0.904292
6 2 0.714861 0.189818 0.973808
23 2 0.712182 0.153214 0.768671
54 1 0.726841 0.468165 0.919845
56 1 0.51718 0.36508 0.923709
91 1 0.484045 0.269266 0.786075
105 1 0.898316 0.285919 0.838762
35 1 0.340895 0.887744 0.974694
52 1 0.327672 0.940569 0.844249
77 1 0.113439 0.884248 0.824309
2 2 0.457778 0.629043 0.978086
26 2 0.0236691 0.519374 0.912821
79 1 0.266002 0.670062 0.865239
107 1 0.254335 0.639497 0.851479
113 1 0.233998 0.680747 0.862237
33 1 0.772749 0.948099 0.897117
50 1 0.566005 0.891811 0.798349
19 2 0.487449 0.539844 0.789539
62 1 0.979054 0.839187 0.958009
36 1 0.591708 0.85413 0.973732
81 1 0.685814 0.682803 0.872497
103 1 0.858353 0.689908 0.872333
111 1 0.829019 0.706327 0.881313
ITEM: TIMESTEP
400
ITEM: NUMBER OF ATOMS
125
ITEM: BOX BOUNDS pp pp pp
0.0000000000000000e+00 9.6999999999999993e+00
0.0000000000000000e+00 9.6999999999999993e+00
0.0000000000000000e+00 1.5800000000000001e+01
ITEM: ATOMS id type xs ys zs
1 2 0.029364 0.238722 0.0273691
8 2 0.00976567 0.294477 0.219497
25 2 0.476101 0.347493 0.0746351
57 1 0.216939 0.446816 0.0455062
59 1 0.470254 0.0397083 0.0484637
65 1 0.268006 0.437739 0.189867
66 1 0.452371 0.0270677 0.19732
78 1 0.254511 0.214578 0.137336
106 1 0.269785 0.214409 0.12483
114 1 0.30034 0.176301 0.125776
38 1 0.194826 0.00984175 0.0466677
37 1 0.904561 0.00847009 0.0251937
55 1 0.766188 0.411866 0.0671076
64 1 0.665803 0.352324 0.195453
80 1 0.775484 0.139066 0.131769
102 1 0.646711 0.138167 0.13122
112 1 0.833722 0.182014 0.126971
41 1 0.115819 0.872951 0.167853
3 2 0.172802 0.714002 0.0338882
10 2 0.269621 0.694236 0.239813
39 1 0.350444 0.851205 0.109132
92 1 0.0190564 0.593075 0.205162
94 1 0.0711723 0.566455 0.200948
116 1 0.429193 0.598109 0.130018
90 1 0.936051 0.599654 0.198297
53 1 0.991565 0.51031 0.0760384
61 1 0.923682 0.816038 0.115756
82 1 0.544389 0.585859 0.126136
5 2 0.787869 0.673703 0.0233131
12 2 0.77399 0.739647 0.238878
42 1 0.536158 0.794818 0.186939
104 1 0.590345 0.573895 0.116021
40 1 0.696584 0.903586 0.0972137
28 2 0.436007 0.264723 0.262802
9 2 0.202087 0.039656 0.263248
16 2 0.256893 0.0412936 0.458635
70 1 0.24308 0.465761 0.475928
86 1 0.180609 0.254582 0.359631
97 1 0.308521 0.455753 0.334365
98 1 0.502079 0.0597236 0.384431
119 1 0.145474 0.244189 0.361253
29 2 0.451798 0.295523 0.448119
43 1 0.940039 0.0116848 0.230163
63 1 0.810585 0.455602 0.291321
11 2 0.691737 0.0503801 0.271297
18 2 0.720811 0.0833252 0.468307
47 1 0.982945 0.00843192 0.392507
68 1 0.818935 0.412339 0.425748
96 1 0.662531 0.287026 0.343607
109 1 0.877822 0.215837 0.341117
44 1 0.411838 0.878309 0.31092
67 1 0.0254573 0.802915 0.302375
27 2 0.0583208 0.530946 0.360232
48 1 0.490265 0.850004 0.450498
72 1 0.991888 0.780989 0.455391
84 1 0.345854 0.674138 0.391699
110 1 0.332209 0.674129 0.394029
118 1 0.218538 0.793708 0.38784
7 2 0.549407 0.558229 0.290067
14 2 0.531192 0.575039 0.48309
85 1 0.705356 0.835505 0.383173
108 1 0.78181 0.852559 0.384596
117 1 0.78656 0.639778 0.405041
45 1 0.0513193 0.989387 0.553547
71 1 0.482064 0.0985368 0.553653
32 2 0.436769 0.339572 0.631711
76 1 0.462215 0.0369648 0.713554
87 1 0.193864 0.272272 0.588995
122 1 0.223507 0.216005 0.571231
100 1 0.224518 0.500415 0.625546
69 1 0.665981 0.376277 0.541803
13 2 0.985926 0.234846 0.484556
20 2 0.953666 0.313095 0.678476
74 1 0.673741 0.381133 0.690505
88 1 0.844672 0.0347284 0.617231
120 1 0.689109 0.0276789 0.629304
123 1 0.742345 0.178077 0.606925
49 1 0.0808422 0.942092 0.698866
124 1 0.284293 -0.00391991 0.617617
15 2 0.240086 0.73833 0.544265
22 2 0.321866 0.79793 0.729186
125 1 0.458405 0.628303 0.631742
31 2 0.0397915 0.63208 0.73401
30 2 0.981613 0.555066 0.539153
46 1 0.495888 0.857376 0.603215
89 1 0.563241 0.595278 0.645115
101 1 0.978135 0.785844 0.60705
17 2 0.737484 0.791965 0.540931
24 2 0.805038 0.858653 0.733858
99 1 0.79337 0.595859 0.655037
121 1 0.585933 0.711524 0.707897
75 1 0.2239 0.427643 0.768373
4 2 0.303632 0.18244 0.943785
21 2 0.214558 0.165681 0.739782
34 1 0.0775557 0.0394111 0.919482
58 1 0.298967 0.436762 0.906626
93 1 0.455703 0.274295 0.784253
95 1 0.467176 0.244028 0.782932
115 1 0.0634728 0.278452 0.851693
51 1 0.96233 0.0819987 0.799657
73 1 0.80294 0.501364 0.784266
60 1 0.533041 0.0714544 0.891358
83 1 0.926896 0.317526 0.834905
6 2 0.718627 0.175033 0.978731
23 2 0.714851 0.158747 0.774246
54 1 0.723954 0.4701 0.920194
56 1 0.51879 0.343671 0.917466
91 1 0.495426 0.260555 0.776869
105 1 0.863406 0.287041 0.890306
35 1 0.355983 0.86231 0.959204
52 1 0.31381 0.978728 0.839048
77 1 0.0863133 0.842638 0.831983
2 2 0.473747 0.620262 0.973849
26 2 0.0268176 0.514626 0.916189
79 1 0.266036 0.705811 0.880931
107 1 0.25685 0.651882 0.856728
113 1 0.223027 0.657024 0.859232
33 1 0.778666 0.955024 0.888182
50 1 0.549809 0.887953 0.813641
19 2 0.478333 0.532125 0.79426
62 1 0.968501 0.827828 0.955794
36 1 0.597702 0.859173 0.967639
81 1 0.683986 0.692985 0.861602
103 1 0.854351 0.685235 0.858766
111 1 0.828706 0.698214 0.868031
ITEM: TIMESTEP
500
ITEM: NUMBER OF ATOMS
125
ITEM: BOX BOUNDS pp pp pp
0.0000000000000000e+00 9.6999999999999993e+00
0.0000000000000000e+00 9.6999999999999993e+00
0.0000000000000000e+00 1.5800000000000001e+01
ITEM: ATOMS id type xs ys zs
1 2 0.0189308 0.245862 0.0169602
8 2 0.0123073 0.298398 0.214516
25 2 0.479812 0.342497 0.0713044
57 1 0.206161 0.424181 0.0582508
59 1 0.471442 0.057888 0.0437808
65 1 0.255054 0.436021 0.194381
66 1 0.434051 0.00888043 0.185222
78 1 0.229885 0.194592 0.137073
106 1 0.255431 0.198758 0.119434
114 1 0.272075 0.176486 0.120516
38 1 0.177729 -0.00515527 0.0458775
37 1 0.914328 0.0242452 0.0393906
55 1 0.753511 0.399629 0.0686545
64 1 0.677675 0.3583 0.204767
80 1 0.761634 0.158775 0.14377
102 1 0.626858 0.143495 0.135457
112 1 0.812416 0.188039 0.138357
41 1 0.140254 0.853948 0.156826
3 2 0.180695 0.686909 0.0267768
10 2 0.266079 0.684153 0.239221
39 1 0.36513 0.827149 0.0992271
92 1 0.01757 0.640544 0.199894
94 1 0.0347481 0.568238 0.203261
116 1 0.42842 0.585209 0.136323
90 1 1.0133 0.583135 0.193017
53 1 0.966137 0.487234 0.0706212
61 1 0.937376 0.808414 0.106069
82 1 0.586044 0.580847 0.136659
5 2 0.770618 0.669235 0.0230622
12 2 0.78925 0.740345 0.231236
42 1 0.543901 0.7939 0.186889
104 1 0.612918 0.575601 0.127602
40 1 0.710946 0.918293 0.0992513
28 2 0.437815 0.247222 0.251665
9 2 0.19504 0.0412386 0.259864
16 2 0.246082 0.0371735 0.447125
70 1 0.231809 0.470291 0.486647
86 1 0.190411 0.274246 0.364238
97 1 0.312881 0.467958 0.336325
98 1 0.483675 0.0696295 0.384125
119 1 0.143596 0.267079 0.364047
29 2 0.424789 0.2969 0.446977
43 1 0.948623 0.0209736 0.208362
63 1 0.833191 0.479893 0.278433
11 2 0.686043 0.0385022 0.274766
18 2 0.719226 0.0948512 0.469077
47 1 0.993973 0.00474339 0.38297
68 1 0.824571 0.430416 0.437945
96 1 0.666784 0.308578 0.3622
109 1 0.880802 0.212694 0.353309
44 1 0.456776 0.86269 0.316146
67 1 0.0336267 0.81621 0.292334
27 2 0.0523065 0.538626 0.362058
48 1 0.475447 0.866438 0.470054
72 1 0.986544 0.777715 0.453389
84 1 0.355153 0.688921 0.393029
110 1 0.338814 0.667288 0.397044
118 1 0.211622 0.811096 0.37408
7 2 0.552717 0.561329 0.297532
14 2 0.524374 0.588127 0.496533
85 1 0.684659 0.831912 0.382292
108 1 0.781401 0.862009 0.387391
117 1 0.764235 0.647041 0.395274
45 1 0.0643902 1.00933 0.553497
71 1 0.4639 0.0944434 0.554991
32 2 0.438504 0.349893 0.628678
76 1 0.462398 0.0400728 0.710735
87 1 0.20882 0.256475 0.591027
122 1 0.211494 0.214914 0.5847
100 1 0.207457 0.483339 0.632833
69 1 0.659195 0.348454 0.540769
13 2 1.00774 0.239573 0.495812
20 2 0.95959 0.312953 0.685317
74 1 0.675421 0.392189 0.686546
88 1 0.850956 0.0757591 0.612944
120 1 0.681955 0.0344352 0.627434
123 1 0.701243 0.158884 0.621155
49 1 0.108493 0.932063 0.702666
124 1 0.281699 -0.018998 0.614031
15 2 0.240259 0.744791 0.538989
22 2 0.325404 0.782733 0.730408
125 1 0.424323 0.607285 0.639753
31 2 0.0368098 0.634818 0.72087
30 2 0.970157 0.549868 0.542632
46 1 0.491762 0.847567 0.616828
89 1 0.558872 0.601497 0.649356
101 1 0.977404 0.814043 0.603538
17 2 0.745413 0.788334 0.544044
24 2 0.807598 0.856121 0.731697
99 1 0.790571 0.591892 0.65665
121 1 0.593191 0.704861 0.706944
75 1 0.199924 0.443264 0.784861
4 2 0.295653 0.182391 0.938359
21 2 0.240947 0.173172 0.738562
34 1 0.0719363 0.0397023 0.91453
58 1 0.302086 0.439838 0.92953
93 1 0.464182 0.27802 0.784102
95 1 0.472502 0.253474 0.782873
115 1 0.0744594 0.272432 0.856006
51 1 0.967641 0.0795664 0.786812
73 1 0.821555 0.486205 0.789221
60 1 0.511657 0.0725326 0.885472
83 1 0.906955 0.258106 0.884474
6 2 0.719704 0.180252 0.978742
23 2 0.711356 0.149992 0.778862
54 1 0.713368 0.455419 0.919278
56 1 0.520767 0.329717 0.916063
91 1 0.486754 0.263226 0.779115
105 1 0.914153 0.2969 0.84724
35 1 0.371991 0.886434 0.959329
52 1 0.278126 0.956668 0.834832
77 1 0.0617932 0.81857 0.829879
2 2 0.487546 0.640667 0.978049
26 2 0.00580693 0.519385 0.903963
79 1 0.278752 0.711623 0.880245
107 1 0.292033 0.653069 0.868481
113 1 0.242089 0.636985 0.856672
33 1 0.799346 0.952199 0.891718
50 1 0.55708 0.892067 0.812346
19 2 0.483808 0.526604 0.797965
62 1 0.98341 0.83045 0.963373
36 1 0.614688 0.874339 0.963187
81 1 0.69624 0.701734 0.857295
103 1 0.856926 0.700798 0.857052
111 1 0.835386 0.711336 0.864409
ITEM: TIMESTEP
600
ITEM: NUMBER OF ATOMS
125
ITEM: BOX BOUNDS pp pp pp
0.0000000000000000e+00 9.6999999999999993e+00
0.0000000000000000e+00 9.6999999999999993e+00
0.0000000000000000e+00 1.5800000000000001e+01
ITEM: ATOMS id type xs ys zs
1 2 0.00416057 0.248034 0.0250629
8 2 -0.000749532 0.301841 0.211029
25 2 0.473716 0.354942 0.0697755
57 1 0.212538 0.415494 0.065563
59 1 0.48038 0.0487954 0.0520179
65 1 0.242573 0.417041 0.203551
66 1 0.420793 -0.00117971 0.192859
78 1 0.234188 0.193392 0.130448
106 1 0.25315 0.199049 0.113888
114 1 0.280529 0.167119 0.115303
38 1 0.16786 -0.00810597 0.0335017
37 1 0.908248 0.0117199 0.0432642
55 1 0.770905 0.396649 0.0629689
64 1 0.66809 0.359691 0.202071
80 1 0.797459 0.181244 0.13527
102 1 0.642267 0.153864 0.136082
112 1 0.814299 0.186708 0.134778
41 1 0.147988 0.874216 0.152094
3 2 0.179718 0.668907 0.0351211
10 2 0.280771 0.703763 0.238388
39 1 0.365452 0.828639 0.0921509
92 1 0.0317677 0.612036 0.206311
94 1 0.0382285 0.589049 0.218345
116 1 0.4276 0.574089 0.145312
90 1 1.011 0.657172 0.21251
53 1 0.980869 0.505239 0.0701912
61 1 0.952305 0.797376 0.105365
82 1 0.584741 0.564223 0.138851
5 2 0.791927 0.663657 0.0210596
12 2 0.77841 0.739957 0.227964
42 1 0.542281 0.787338 0.178645
104 1 0.613826 0.555745 0.12754
40 1 0.713638 0.922218 0.113733
28 2 0.434114 0.250893 0.246459
9 2 0.18633 0.0524013 0.264571
16 2 0.248705 0.0328463 0.45622
70 1 0.214735 0.459755 0.490478
86 1 0.17457 0.264238 0.357758
97 1 0.301837 0.464359 0.33817
98 1 0.495471 0.0733272 0.380514
119 1 0.147874 0.258954 0.359359
29 2 0.41048 0.297791 0.439419
43 1 0.926834 -0.010685 0.1972
63 1 0.837759 0.482786 0.27839
11 2 0.697013 0.0406742 0.269846
18 2 0.735591 0.0902063 0.461485
47 1 0.986166 0.0504201 0.398972
68 1 0.809145 0.443509 0.422469
96 1 0.63548 0.282078 0.353863
109 1 0.886634 0.255749 0.342695
44 1 0.456705 0.869144 0.311218
67 1 0.0116166 0.831861 0.301014
27 2 0.0608099 0.525121 0.357406
48 1 0.470354 0.857283 0.453039
72 1 1.00183 0.789609 0.451338
84 1 0.355391 0.680487 0.39448
110 1 0.315634 0.674863 0.399292
118 1 0.238933 0.779851 0.387635
7 2 0.556204 0.557002 0.303013
14 2 0.538292 0.576192 0.490013
85 1 0.676906 0.796287 0.376922
108 1 0.801625 0.861776 0.378959
117 1 0.781791 0.676597 0.398505
45 1 0.0582408 1.01395 0.556872
71 1 0.487219 0.100547 0.543282
32 2 0.444879 0.338063 0.628859
76 1 0.476456 0.0414617 0.704335
87 1 0.19025 0.254986 0.597242
122 1 0.219982 0.221062 0.573783
100 1 0.206598 0.484448 0.632961
69 1 0.676731 0.33889 0.51752
13 2 0.993773 0.259419 0.490948
20 2 0.962511 0.316568 0.687545
74 1 0.683804 0.380187 0.690094
88 1 0.83738 0.0551383 0.61823
120 1 0.683191 0.0361823 0.624625
123 1 0.695899 0.165415 0.616209
49 1 0.123893 0.906061 0.701059
124 1 0.287457 -0.00236333 0.61515
15 2 0.222963 0.737499 0.545629
22 2 0.346783 0.78842 0.732511
125 1 0.440041 0.605358 0.63927
31 2 0.0525614 0.636383 0.72882
30 2 0.957055 0.557843 0.539912
46 1 0.500894 0.846094 0.601899
89 1 0.537438 0.582579 0.650337
101 1 0.972828 0.805138 0.604883
17 2 0.733838 0.80244 0.537891
24 2 0.805361 0.862388 0.729063
99 1 0.782851 0.585777 0.651372
121 1 0.604697 0.705361 0.708297
75 1 0.225847 0.426557 0.794935
4 2 0.283215 0.169637 0.943646
21 2 0.231039 0.163178 0.738446
34 1 0.0369627 0.0582674 0.907585
58 1 0.301191 0.450791 0.937609
93 1 0.457004 0.289558 0.783836
95 1 0.470897 0.26205 0.785182
115 1 0.0482465 0.265694 0.846118
51 1 0.97208 0.0610971 0.757596
73 1 0.814951 0.497629 0.790182
60 1 0.510034 0.0757903 0.883902
83 1 0.901035 0.276862 0.863501
6 2 0.701318 0.163275 0.983306
23 2 0.712102 0.151402 0.777999
54 1 0.719104 0.451878 0.922773
56 1 0.511813 0.335383 0.919067
91 1 0.484693 0.27316 0.779807
105 1 0.913211 0.244979 0.866524
35 1 0.372804 0.896455 0.952342
52 1 0.267145 0.963124 0.833458
77 1 0.0739316 0.834919 0.837588
2 2 0.490745 0.6541 0.988645
26 2 0.0102836 0.500431 0.902147
79 1 0.265893 0.700729 0.880985
107 1 0.27877 0.653565 0.867747
113 1 0.223106 0.654964 0.866673
33 1 0.819634 0.974378 0.888667
50 1 0.586089 0.888976 0.812384
19 2 0.495868 0.532796 0.80976
62 1 0.985145 0.823655 0.96288
36 1 0.62721 0.889573 0.965483
81 1 0.693076 0.688775 0.872488
103 1 0.851498 0.709105 0.860721
111 1 0.844115 0.717269 0.870226
ITEM: TIMESTEP
700
ITEM: NUMBER OF ATOMS
125
ITEM: BOX BOUNDS pp pp pp
0.0000000000000000e+00 9.6999999999999993e+00