ITEM: TIMESTEP
0
ITEM: NUMBER OF ATOMS
96
ITEM: BOX BOUNDS pp pp pp
-6.6137860000000002e+00 1.7886213999999999e+01
-6.6137860000000002e+00 1.7886213999999999e+01
-5.6012500000000003e+00 1.4298750000000000e+01
ITEM: ATOMS id type xs ys zs
65 1 0.26995 0.26995 0.343907
66 1 0.26995 0.26995 0.593656
81 1 0.26995 0.26995 0.468781
82 1 0.26995 0.26995 0.71853
69 1 0.519746 0.26995 0.343907
70 1 0.519746 0.26995 0.593656
85 1 0.519746 0.26995 0.468781
86 1 0.519746 0.26995 0.71853
41 2 0.309443 0.355356 0.406344
42 2 0.309443 0.355356 0.656093
49 2 0.355356 0.309443 0.28147
50 2 0.355356 0.309443 0.531219
73 1 0.394848 0.394848 0.468781
74 1 0.394848 0.394848 0.71853
89 1 0.394848 0.394848 0.343907
90 1 0.394848 0.394848 0.593656
9 2 0.434341 0.309443 0.406344
10 2 0.434341 0.309443 0.656093
25 2 0.480254 0.355356 0.28147
26 2 0.480254 0.355356 0.531219
45 2 0.559239 0.355356 0.406344
46 2 0.559239 0.355356 0.656093
13 2 0.684137 0.309443 0.406344
14 2 0.684137 0.309443 0.656093
53 2 0.605152 0.309443 0.28147
54 2 0.605152 0.309443 0.531219
77 1 0.644644 0.394848 0.468781
78 1 0.644644 0.394848 0.71853
93 1 0.644644 0.394848 0.343907
94 1 0.644644 0.394848 0.593656
29 2 0.73005 0.355356 0.28147
30 2 0.73005 0.355356 0.531219
67 1 0.26995 0.519746 0.343907
68 1 0.26995 0.519746 0.593656
83 1 0.26995 0.519746 0.468781
84 1 0.26995 0.519746 0.71853
1 2 0.309443 0.434341 0.28147
2 2 0.309443 0.434341 0.531219
17 2 0.355356 0.480254 0.406344
18 2 0.355356 0.480254 0.656093
51 2 0.355356 0.559239 0.28147
52 2 0.355356 0.559239 0.531219
5 2 0.559239 0.434341 0.28147
6 2 0.559239 0.434341 0.531219
11 2 0.434341 0.559239 0.406344
12 2 0.434341 0.559239 0.656093
33 2 0.434341 0.480254 0.28147
34 2 0.434341 0.480254 0.531219
57 2 0.480254 0.434341 0.406344
58 2 0.480254 0.434341 0.656093
71 1 0.519746 0.519746 0.343907
72 1 0.519746 0.519746 0.593656
87 1 0.519746 0.519746 0.468781
88 1 0.519746 0.519746 0.71853
15 2 0.684137 0.559239 0.406344
16 2 0.684137 0.559239 0.656093
21 2 0.605152 0.480254 0.406344
22 2 0.605152 0.480254 0.656093
37 2 0.684137 0.480254 0.28147
38 2 0.684137 0.480254 0.531219
55 2 0.605152 0.559239 0.28147
56 2 0.605152 0.559239 0.531219
61 2 0.73005 0.434341 0.406344
62 2 0.73005 0.434341 0.656093
3 2 0.309443 0.684137 0.28147
4 2 0.309443 0.684137 0.531219
43 2 0.309443 0.605152 0.406344
44 2 0.309443 0.605152 0.656093
75 1 0.394848 0.644644 0.468781
76 1 0.394848 0.644644 0.71853
91 1 0.394848 0.644644 0.343907
92 1 0.394848 0.644644 0.593656
7 2 0.559239 0.684137 0.28147
8 2 0.559239 0.684137 0.531219
27 2 0.480254 0.605152 0.28147
28 2 0.480254 0.605152 0.531219
47 2 0.559239 0.605152 0.406344
48 2 0.559239 0.605152 0.656093
59 2 0.480254 0.684137 0.406344
60 2 0.480254 0.684137 0.656093
79 1 0.644644 0.644644 0.468781
80 1 0.644644 0.644644 0.71853
95 1 0.644644 0.644644 0.343907
96 1 0.644644 0.644644 0.593656
31 2 0.73005 0.605152 0.28147
32 2 0.73005 0.605152 0.531219
63 2 0.73005 0.684137 0.406344
64 2 0.73005 0.684137 0.656093
19 2 0.355356 0.73005 0.406344
20 2 0.355356 0.73005 0.656093
35 2 0.434341 0.73005 0.28147
36 2 0.434341 0.73005 0.531219
23 2 0.605152 0.73005 0.406344
24 2 0.605152 0.73005 0.656093
39 2 0.684137 0.73005 0.28147
40 2 0.684137 0.73005 0.531219
ITEM: TIMESTEP
100
ITEM: NUMBER OF ATOMS
96
ITEM: BOX BOUNDS pp pp pp
-6.6137860000000002e+00 1.7886213999999999e+01
-6.6137860000000002e+00 1.7886213999999999e+01
-5.6012500000000003e+00 1.4298750000000000e+01
ITEM: ATOMS id type xs ys zs
65 1 0.336043 0.251191 0.401314
66 1 0.244258 0.341265 0.542385
81 1 0.264588 0.263349 0.47939
82 1 0.274182 0.262336 0.597444
69 1 0.523613 0.254196 0.337964
70 1 0.515933 0.253495 0.599406
85 1 0.521974 0.250039 0.468938
86 1 0.511465 0.257724 0.717819
41 2 0.29316 0.351949 0.416121
42 2 0.306811 0.349267 0.653973
49 2 0.34984 0.306896 0.288636
50 2 0.358168 0.289614 0.531772
73 1 0.38704 0.385876 0.472654
74 1 0.385549 0.39118 0.732737
89 1 0.390654 0.388882 0.349828
90 1 0.389903 0.391342 0.59663
9 2 0.435222 0.292666 0.402387
10 2 0.43185 0.308965 0.671267
25 2 0.477908 0.341846 0.270483
26 2 0.4827 0.341494 0.535725
45 2 0.561622 0.336189 0.404185
46 2 0.559555 0.339436 0.666968
13 2 0.689722 0.300294 0.400681
14 2 0.685405 0.307145 0.664446
53 2 0.605725 0.30775 0.267208
54 2 0.612556 0.291104 0.535946
77 1 0.651615 0.389466 0.468381
78 1 0.64484 0.385451 0.734975
93 1 0.647042 0.392641 0.343194
94 1 0.647032 0.389049 0.597181
29 2 0.725088 0.353961 0.268287
30 2 0.740683 0.349683 0.535773
67 1 0.253818 0.514874 0.342352
68 1 0.255027 0.523742 0.604253
83 1 0.250787 0.521265 0.472083
84 1 0.262388 0.526935 0.722986
1 2 0.304607 0.427156 0.274764
2 2 0.29408 0.434953 0.539985
17 2 0.338548 0.479752 0.405781
18 2 0.344079 0.479904 0.670205
51 2 0.339781 0.556398 0.273045
52 2 0.338717 0.561719 0.535788
5 2 0.563352 0.435005 0.264309
6 2 0.561978 0.432561 0.534494
11 2 0.430005 0.559221 0.402611
12 2 0.43806 0.566075 0.672559
33 2 0.431817 0.4728 0.264768
34 2 0.431331 0.480935 0.537394
57 2 0.481498 0.430165 0.401459
58 2 0.476497 0.435068 0.673929
71 1 0.519147 0.521044 0.336134
72 1 0.522745 0.521518 0.603021
87 1 0.521707 0.522232 0.468058
88 1 0.523137 0.52139 0.736957
15 2 0.715323 0.559652 0.401076
16 2 0.697545 0.563834 0.662486
21 2 0.613949 0.485713 0.39931
22 2 0.607674 0.475636 0.67198
37 2 0.693895 0.478729 0.26909
38 2 0.706917 0.479245 0.533508
55 2 0.602095 0.565747 0.26093
56 2 0.614493 0.560103 0.532166
61 2 0.746992 0.420692 0.3986
62 2 0.72954 0.424674 0.671597
3 2 0.307992 0.681424 0.272726
4 2 0.299366 0.688743 0.537638
43 2 0.292064 0.610383 0.403102
44 2 0.311274 0.607369 0.67421
75 1 0.389918 0.652326 0.469238
76 1 0.396181 0.652029 0.73791
91 1 0.390474 0.6464 0.344609
92 1 0.393347 0.649789 0.596988
7 2 0.557884 0.694691 0.269902
8 2 0.559668 0.712488 0.534067
27 2 0.471556 0.603765 0.261421
28 2 0.483984 0.614299 0.535378
47 2 0.555561 0.615794 0.400789
48 2 0.568087 0.606676 0.671051
59 2 0.477744 0.713557 0.403514
60 2 0.478274 0.69723 0.664915
79 1 0.651524 0.651897 0.466314
80 1 0.656192 0.646926 0.735699
95 1 0.647107 0.645755 0.342592
96 1 0.650035 0.650016 0.592545
31 2 0.726056 0.611102 0.261314
32 2 0.748564 0.620653 0.533176
63 2 0.740177 0.69062 0.396166
64 2 0.732853 0.687663 0.663133
19 2 0.346936 0.73902 0.401029
20 2 0.35308 0.729444 0.668584
35 2 0.423648 0.726563 0.264883
36 2 0.418827 0.749603 0.537558
23 2 0.618054 0.746178 0.398059
24 2 0.615373 0.730517 0.671428
39 2 0.681888 0.726988 0.266032
40 2 0.690319 0.742903 0.533256
ITEM: TIMESTEP
128
ITEM: NUMBER OF ATOMS
96
ITEM: BOX BOUNDS pp pp pp
-6.6137860000000002e+00 1.7886213999999999e+01
-6.6137860000000002e+00 1.7886213999999999e+01
-5.6012500000000003e+00 1.4298750000000000e+01
ITEM: ATOMS id type xs ys zs
65 1 0.336043 0.251191 0.401315
66 1 0.244258 0.341265 0.542385
81 1 0.264588 0.263349 0.479391
82 1 0.274182 0.262335 0.597445
69 1 0.523613 0.254196 0.337964
70 1 0.515933 0.253495 0.599406
85 1 0.521974 0.250039 0.468938
86 1 0.511465 0.257724 0.717819
41 2 0.29316 0.351948 0.416121
42 2 0.306811 0.349267 0.653973
49 2 0.34984 0.306895 0.288636
50 2 0.358168 0.289614 0.531772
73 1 0.38704 0.385876 0.472654
74 1 0.385549 0.39118 0.732737
89 1 0.390654 0.388882 0.349829
90 1 0.389903 0.391342 0.59663
9 2 0.435222 0.292666 0.402387
10 2 0.43185 0.308965 0.671267
25 2 0.477908 0.341845 0.270483
26 2 0.4827 0.341494 0.535725
45 2 0.561622 0.336189 0.404185
46 2 0.559555 0.339436 0.666968
13 2 0.689722 0.300295 0.400681
14 2 0.685405 0.307145 0.664446
53 2 0.605725 0.30775 0.267208
54 2 0.612556 0.291104 0.535946
77 1 0.651615 0.389466 0.468381
78 1 0.644839 0.385451 0.734974
93 1 0.647042 0.392641 0.343194
94 1 0.647032 0.389049 0.597181
29 2 0.725088 0.353961 0.268287
30 2 0.740683 0.349683 0.535773
67 1 0.253818 0.514874 0.342352
68 1 0.255027 0.523743 0.604253
83 1 0.250788 0.521266 0.472083
84 1 0.262388 0.526935 0.722986
1 2 0.304607 0.427156 0.274764
2 2 0.29408 0.434953 0.539985
17 2 0.338547 0.479752 0.405781
18 2 0.344079 0.479904 0.670205
51 2 0.339781 0.556398 0.273044
52 2 0.338717 0.561719 0.535788
5 2 0.563352 0.435005 0.264309
6 2 0.561978 0.432561 0.534494
11 2 0.430005 0.559221 0.402611
12 2 0.43806 0.566075 0.67256
33 2 0.431817 0.4728 0.264768
34 2 0.431331 0.480934 0.537394
57 2 0.481499 0.430165 0.401459
58 2 0.476497 0.435068 0.673929
71 1 0.519147 0.521044 0.336134
72 1 0.522745 0.521518 0.603021
87 1 0.521707 0.522232 0.468057
88 1 0.523137 0.52139 0.736957
15 2 0.715324 0.559652 0.401076
16 2 0.697545 0.563834 0.662486
21 2 0.613949 0.485713 0.39931
22 2 0.607674 0.475637 0.67198
37 2 0.693894 0.47873 0.26909
38 2 0.706916 0.479245 0.533508
55 2 0.602095 0.565747 0.260929
56 2 0.614492 0.560104 0.532166
61 2 0.746992 0.420692 0.3986
62 2 0.72954 0.424674 0.671597
3 2 0.307993 0.681424 0.272726
4 2 0.299366 0.688743 0.537638
43 2 0.292065 0.610384 0.403102
44 2 0.311274 0.607369 0.67421
75 1 0.389918 0.652326 0.469238
76 1 0.39618 0.652029 0.73791
91 1 0.390475 0.6464 0.34461
92 1 0.393346 0.649789 0.596988
7 2 0.557884 0.694691 0.269902
8 2 0.559669 0.712485 0.534067
27 2 0.471556 0.603764 0.26142
28 2 0.483983 0.614299 0.535378
47 2 0.555561 0.615794 0.400789
48 2 0.568087 0.606677 0.67105
59 2 0.477744 0.713559 0.403515
60 2 0.478274 0.69723 0.664915
79 1 0.651524 0.651896 0.466314
80 1 0.656193 0.646925 0.735699
95 1 0.647107 0.645755 0.342592
96 1 0.650036 0.650016 0.592545
31 2 0.726056 0.611102 0.261314
32 2 0.748564 0.620653 0.533176
63 2 0.740177 0.69062 0.396166
64 2 0.732854 0.687663 0.663133
19 2 0.346936 0.739021 0.401029
20 2 0.35308 0.729445 0.668584
35 2 0.423649 0.726563 0.264883
36 2 0.418827 0.749603 0.537558
23 2 0.618054 0.746178 0.39806
24 2 0.615373 0.730517 0.671428
39 2 0.681887 0.726988 0.266032
40 2 0.690319 0.742903 0.533256
