LAMMPS data file. CGCMM style. atom_style full generated by VMD/TopoTools v1.5 on Thu Dec 18 13:18:05 MSK 2025
 24 atoms
 30 bonds
 0 angles
 0 dihedrals
 0 impropers
 2 atom types
 1 bond types
 0 angle types
 0 dihedral types
 0 improper types
 -10.633751 16.566250  xlo xhi
 -10.633751 16.566250  ylo yhi
 -10.633751 16.566250  zlo zhi

# Pair Coeffs
#
# 1  Co
# 2  Ta

# Bond Coeffs
#
# 1  

 Masses

 1 58.933201 # Co
 2 180.947906 # Ta

 Atoms

1 1 2 0.000000 2.542500 2.542500 2.542500 # Ta 
2 1 2 0.000000 4.237500 4.237500 4.237500 # Ta 
3 1 2 0.000000 2.542500 5.932500 5.932500 # Ta 
4 1 2 0.000000 0.847500 4.237500 0.847500 # Ta 
5 1 2 0.000000 5.932500 2.542500 5.932500 # Ta 
6 1 2 0.000000 4.237500 0.847500 0.847500 # Ta 
7 1 2 0.000000 5.932500 5.932500 2.542500 # Ta 
8 1 2 0.000000 0.847500 0.847500 4.237500 # Ta 
9 1 1 0.000000 0.000000 0.000000 0.000000 # Co 
10 1 1 0.000000 0.000000 1.695000 1.695000 # Co 
11 1 1 0.000000 5.085000 1.695000 3.390000 # Co 
12 1 1 0.000000 5.085000 0.000000 5.085000 # Co 
13 1 1 0.000000 3.390000 5.085000 1.695000 # Co 
14 1 1 0.000000 1.695000 5.085000 3.390000 # Co 
15 1 1 0.000000 1.695000 3.390000 5.085000 # Co 
16 1 1 0.000000 0.000000 3.390000 3.390000 # Co 
17 1 1 0.000000 1.695000 1.695000 0.000000 # Co 
18 1 1 0.000000 1.695000 0.000000 1.695000 # Co 
19 1 1 0.000000 3.390000 1.695000 5.085000 # Co 
20 1 1 0.000000 0.000000 5.085000 5.085000 # Co 
21 1 1 0.000000 5.085000 3.390000 1.695000 # Co 
22 1 1 0.000000 5.085000 5.085000 0.000000 # Co 
23 1 1 0.000000 3.390000 0.000000 3.390000 # Co 
24 1 1 0.000000 3.390000 3.390000 0.000000 # Co 

 Bonds

1 1 9 10
2 1 9 17
3 1 9 18
4 1 10 17
5 1 10 18
6 1 10 16
7 1 11 21
8 1 11 12
9 1 11 19
10 1 11 23
11 1 12 19
12 1 12 23
13 1 13 22
14 1 13 21
15 1 13 14
16 1 13 24
17 1 14 20
18 1 14 15
19 1 14 16
20 1 15 20
21 1 15 19
22 1 15 16
23 1 16 20
24 1 17 18
25 1 17 24
26 1 18 23
27 1 19 23
28 1 21 22
29 1 21 24
30 1 22 24

