ITEM: TIMESTEP
0
ITEM: NUMBER OF ATOMS
500
ITEM: BOX BOUNDS pp pp pp
8.9000000000000001e-01 1.5490000000000000e+01
8.9000000000000001e-01 1.5490000000000000e+01
8.9000000000000001e-01 1.5490000000000000e+01
ITEM: ATOMS id type xs ys zs
26 1 0.188356 0.0636986 0.0636986
30 1 0.188356 0.0636986 0.0609588
46 1 0.188356 0.0609588 0.0636986
50 1 0.188356 0.0609588 0.0609588
127 1 0.0636986 0.0636986 0.188356
147 1 0.0636986 0.0609588 0.188356
227 1 0.0609588 0.0636986 0.188356
247 1 0.0609588 0.0609588 0.188356
256 1 0.0636986 0.188356 0.0636986
260 1 0.0636986 0.188356 0.0609588
356 1 0.0609588 0.188356 0.0636986
360 1 0.0609588 0.188356 0.0609588
407 2 0.188356 0.188356 0.188356
51 1 0.437671 0.0636986 0.0636986
55 1 0.437671 0.0636986 0.0609588
71 1 0.437671 0.0609588 0.0636986
75 1 0.437671 0.0609588 0.0609588
152 1 0.313014 0.0636986 0.188356
172 1 0.313014 0.0609588 0.188356
281 1 0.313014 0.188356 0.0636986
285 1 0.313014 0.188356 0.0609588
432 2 0.437671 0.188356 0.188356
76 1 0.686986 0.0636986 0.0636986
80 1 0.686986 0.0636986 0.0609588
96 1 0.686986 0.0609588 0.0636986
100 1 0.686986 0.0609588 0.0609588
177 1 0.562329 0.0636986 0.188356
197 1 0.562329 0.0609588 0.188356
306 1 0.562329 0.188356 0.0636986
310 1 0.562329 0.188356 0.0609588
457 2 0.686986 0.188356 0.188356
1 1 0.939041 0.0636986 0.0636986
5 1 0.939041 0.0636986 0.0609588
21 1 0.939041 0.0609588 0.0636986
25 1 0.939041 0.0609588 0.0609588
101 1 0.936301 0.0636986 0.0636986
105 1 0.936301 0.0636986 0.0609588
121 1 0.936301 0.0609588 0.0636986
125 1 0.936301 0.0609588 0.0609588
202 1 0.811644 0.0636986 0.188356
222 1 0.811644 0.0609588 0.188356
331 1 0.811644 0.188356 0.0636986
335 1 0.811644 0.188356 0.0609588
382 2 0.939041 0.188356 0.188356
482 2 0.936301 0.188356 0.188356
31 1 0.188356 0.313014 0.0636986
35 1 0.188356 0.313014 0.0609588
132 1 0.0636986 0.313014 0.188356
232 1 0.0609588 0.313014 0.188356
261 1 0.0636986 0.437671 0.0636986
265 1 0.0636986 0.437671 0.0609588
361 1 0.0609588 0.437671 0.0636986
365 1 0.0609588 0.437671 0.0609588
412 2 0.188356 0.437671 0.188356
56 1 0.437671 0.313014 0.0636986
60 1 0.437671 0.313014 0.0609588
157 1 0.313014 0.313014 0.188356
286 1 0.313014 0.437671 0.0636986
290 1 0.313014 0.437671 0.0609588
437 2 0.437671 0.437671 0.188356
81 1 0.686986 0.313014 0.0636986
85 1 0.686986 0.313014 0.0609588
182 1 0.562329 0.313014 0.188356
311 1 0.562329 0.437671 0.0636986
315 1 0.562329 0.437671 0.0609588
462 2 0.686986 0.437671 0.188356
6 1 0.939041 0.313014 0.0636986
10 1 0.939041 0.313014 0.0609588
106 1 0.936301 0.313014 0.0636986
110 1 0.936301 0.313014 0.0609588
207 1 0.811644 0.313014 0.188356
336 1 0.811644 0.437671 0.0636986
340 1 0.811644 0.437671 0.0609588
387 2 0.939041 0.437671 0.188356
487 2 0.936301 0.437671 0.188356
36 1 0.188356 0.562329 0.0636986
40 1 0.188356 0.562329 0.0609588
137 1 0.0636986 0.562329 0.188356
237 1 0.0609588 0.562329 0.188356
266 1 0.0636986 0.686986 0.0636986
270 1 0.0636986 0.686986 0.0609588
366 1 0.0609588 0.686986 0.0636986
370 1 0.0609588 0.686986 0.0609588
417 2 0.188356 0.686986 0.188356
61 1 0.437671 0.562329 0.0636986
65 1 0.437671 0.562329 0.0609588
162 1 0.313014 0.562329 0.188356
291 1 0.313014 0.686986 0.0636986
295 1 0.313014 0.686986 0.0609588
442 2 0.437671 0.686986 0.188356
86 1 0.686986 0.562329 0.0636986
90 1 0.686986 0.562329 0.0609588
187 1 0.562329 0.562329 0.188356
316 1 0.562329 0.686986 0.0636986
320 1 0.562329 0.686986 0.0609588
467 2 0.686986 0.686986 0.188356
11 1 0.939041 0.562329 0.0636986
15 1 0.939041 0.562329 0.0609588
111 1 0.936301 0.562329 0.0636986
115 1 0.936301 0.562329 0.0609588
212 1 0.811644 0.562329 0.188356
341 1 0.811644 0.686986 0.0636986
345 1 0.811644 0.686986 0.0609588
392 2 0.939041 0.686986 0.188356
492 2 0.936301 0.686986 0.188356
41 1 0.188356 0.811644 0.0636986
45 1 0.188356 0.811644 0.0609588
142 1 0.0636986 0.811644 0.188356
242 1 0.0609588 0.811644 0.188356
251 1 0.0636986 0.939041 0.0636986
255 1 0.0636986 0.939041 0.0609588
271 1 0.0636986 0.936301 0.0636986
275 1 0.0636986 0.936301 0.0609588
351 1 0.0609588 0.939041 0.0636986
355 1 0.0609588 0.939041 0.0609588
371 1 0.0609588 0.936301 0.0636986
375 1 0.0609588 0.936301 0.0609588
402 2 0.188356 0.939041 0.188356
422 2 0.188356 0.936301 0.188356
66 1 0.437671 0.811644 0.0636986
70 1 0.437671 0.811644 0.0609588
167 1 0.313014 0.811644 0.188356
276 1 0.313014 0.939041 0.0636986
280 1 0.313014 0.939041 0.0609588
296 1 0.313014 0.936301 0.0636986
300 1 0.313014 0.936301 0.0609588
427 2 0.437671 0.939041 0.188356
447 2 0.437671 0.936301 0.188356
91 1 0.686986 0.811644 0.0636986
95 1 0.686986 0.811644 0.0609588
192 1 0.562329 0.811644 0.188356
301 1 0.562329 0.939041 0.0636986
305 1 0.562329 0.939041 0.0609588
321 1 0.562329 0.936301 0.0636986
325 1 0.562329 0.936301 0.0609588
452 2 0.686986 0.939041 0.188356
472 2 0.686986 0.936301 0.188356
16 1 0.939041 0.811644 0.0636986
20 1 0.939041 0.811644 0.0609588
116 1 0.936301 0.811644 0.0636986
120 1 0.936301 0.811644 0.0609588
217 1 0.811644 0.811644 0.188356
326 1 0.811644 0.939041 0.0636986
330 1 0.811644 0.939041 0.0609588
346 1 0.811644 0.936301 0.0636986
350 1 0.811644 0.936301 0.0609588
377 2 0.939041 0.939041 0.188356
397 2 0.939041 0.936301 0.188356
477 2 0.936301 0.939041 0.188356
497 2 0.936301 0.936301 0.188356
27 1 0.188356 0.0636986 0.313014
47 1 0.188356 0.0609588 0.313014
128 1 0.0636986 0.0636986 0.437671
148 1 0.0636986 0.0609588 0.437671
228 1 0.0609588 0.0636986 0.437671
248 1 0.0609588 0.0609588 0.437671
257 1 0.0636986 0.188356 0.313014
357 1 0.0609588 0.188356 0.313014
408 2 0.188356 0.188356 0.437671
52 1 0.437671 0.0636986 0.313014
72 1 0.437671 0.0609588 0.313014
153 1 0.313014 0.0636986 0.437671
173 1 0.313014 0.0609588 0.437671
282 1 0.313014 0.188356 0.313014
433 2 0.437671 0.188356 0.437671
77 1 0.686986 0.0636986 0.313014
97 1 0.686986 0.0609588 0.313014
178 1 0.562329 0.0636986 0.437671
198 1 0.562329 0.0609588 0.437671
307 1 0.562329 0.188356 0.313014
458 2 0.686986 0.188356 0.437671
2 1 0.939041 0.0636986 0.313014
22 1 0.939041 0.0609588 0.313014
102 1 0.936301 0.0636986 0.313014
122 1 0.936301 0.0609588 0.313014
203 1 0.811644 0.0636986 0.437671
223 1 0.811644 0.0609588 0.437671
332 1 0.811644 0.188356 0.313014
383 2 0.939041 0.188356 0.437671
483 2 0.936301 0.188356 0.437671
32 1 0.188356 0.313014 0.313014
133 1 0.0636986 0.313014 0.437671
233 1 0.0609588 0.313014 0.437671
262 1 0.0636986 0.437671 0.313014
362 1 0.0609588 0.437671 0.313014
413 2 0.188356 0.437671 0.437671
57 1 0.437671 0.313014 0.313014
158 1 0.313014 0.313014 0.437671
287 1 0.313014 0.437671 0.313014
438 2 0.437671 0.437671 0.437671
82 1 0.686986 0.313014 0.313014
183 1 0.562329 0.313014 0.437671
312 1 0.562329 0.437671 0.313014
463 2 0.686986 0.437671 0.437671
7 1 0.939041 0.313014 0.313014
107 1 0.936301 0.313014 0.313014
208 1 0.811644 0.313014 0.437671
337 1 0.811644 0.437671 0.313014
388 2 0.939041 0.437671 0.437671
488 2 0.936301 0.437671 0.437671
37 1 0.188356 0.562329 0.313014
138 1 0.0636986 0.562329 0.437671
238 1 0.0609588 0.562329 0.437671
267 1 0.0636986 0.686986 0.313014
367 1 0.0609588 0.686986 0.313014
418 2 0.188356 0.686986 0.437671
62 1 0.437671 0.562329 0.313014
163 1 0.313014 0.562329 0.437671
292 1 0.313014 0.686986 0.313014
443 2 0.437671 0.686986 0.437671
87 1 0.686986 0.562329 0.313014
188 1 0.562329 0.562329 0.437671
317 1 0.562329 0.686986 0.313014
468 2 0.686986 0.686986 0.437671
12 1 0.939041 0.562329 0.313014
112 1 0.936301 0.562329 0.313014
213 1 0.811644 0.562329 0.437671
342 1 0.811644 0.686986 0.313014
393 2 0.939041 0.686986 0.437671
493 2 0.936301 0.686986 0.437671
42 1 0.188356 0.811644 0.313014
143 1 0.0636986 0.811644 0.437671
243 1 0.0609588 0.811644 0.437671
252 1 0.0636986 0.939041 0.313014
272 1 0.0636986 0.936301 0.313014
352 1 0.0609588 0.939041 0.313014
372 1 0.0609588 0.936301 0.313014
403 2 0.188356 0.939041 0.437671
423 2 0.188356 0.936301 0.437671
67 1 0.437671 0.811644 0.313014
168 1 0.313014 0.811644 0.437671
277 1 0.313014 0.939041 0.313014
297 1 0.313014 0.936301 0.313014
428 2 0.437671 0.939041 0.437671
448 2 0.437671 0.936301 0.437671
92 1 0.686986 0.811644 0.313014
193 1 0.562329 0.811644 0.437671
302 1 0.562329 0.939041 0.313014
322 1 0.562329 0.936301 0.313014
453 2 0.686986 0.939041 0.437671
473 2 0.686986 0.936301 0.437671
17 1 0.939041 0.811644 0.313014
117 1 0.936301 0.811644 0.313014
218 1 0.811644 0.811644 0.437671
327 1 0.811644 0.939041 0.313014
347 1 0.811644 0.936301 0.313014
378 2 0.939041 0.939041 0.437671
398 2 0.939041 0.936301 0.437671
478 2 0.936301 0.939041 0.437671
498 2 0.936301 0.936301 0.437671
28 1 0.188356 0.0636986 0.562329
48 1 0.188356 0.0609588 0.562329
129 1 0.0636986 0.0636986 0.686986
149 1 0.0636986 0.0609588 0.686986
229 1 0.0609588 0.0636986 0.686986
249 1 0.0609588 0.0609588 0.686986
258 1 0.0636986 0.188356 0.562329
358 1 0.0609588 0.188356 0.562329
409 2 0.188356 0.188356 0.686986
53 1 0.437671 0.0636986 0.562329
73 1 0.437671 0.0609588 0.562329
154 1 0.313014 0.0636986 0.686986
174 1 0.313014 0.0609588 0.686986
283 1 0.313014 0.188356 0.562329
434 2 0.437671 0.188356 0.686986
78 1 0.686986 0.0636986 0.562329
98 1 0.686986 0.0609588 0.562329
179 1 0.562329 0.0636986 0.686986
199 1 0.562329 0.0609588 0.686986
308 1 0.562329 0.188356 0.562329
459 2 0.686986 0.188356 0.686986
3 1 0.939041 0.0636986 0.562329
23 1 0.939041 0.0609588 0.562329
103 1 0.936301 0.0636986 0.562329
123 1 0.936301 0.0609588 0.562329
204 1 0.811644 0.0636986 0.686986
224 1 0.811644 0.0609588 0.686986
333 1 0.811644 0.188356 0.562329
384 2 0.939041 0.188356 0.686986
484 2 0.936301 0.188356 0.686986
33 1 0.188356 0.313014 0.562329
134 1 0.0636986 0.313014 0.686986
234 1 0.0609588 0.313014 0.686986
263 1 0.0636986 0.437671 0.562329
363 1 0.0609588 0.437671 0.562329
414 2 0.188356 0.437671 0.686986
58 1 0.437671 0.313014 0.562329
159 1 0.313014 0.313014 0.686986
288 1 0.313014 0.437671 0.562329
439 2 0.437671 0.437671 0.686986
83 1 0.686986 0.313014 0.562329
184 1 0.562329 0.313014 0.686986
313 1 0.562329 0.437671 0.562329
464 2 0.686986 0.437671 0.686986
8 1 0.939041 0.313014 0.562329
108 1 0.936301 0.313014 0.562329
209 1 0.811644 0.313014 0.686986
338 1 0.811644 0.437671 0.562329
389 2 0.939041 0.437671 0.686986
489 2 0.936301 0.437671 0.686986
38 1 0.188356 0.562329 0.562329
139 1 0.0636986 0.562329 0.686986
239 1 0.0609588 0.562329 0.686986
268 1 0.0636986 0.686986 0.562329
368 1 0.0609588 0.686986 0.562329
419 2 0.188356 0.686986 0.686986
63 1 0.437671 0.562329 0.562329
164 1 0.313014 0.562329 0.686986
293 1 0.313014 0.686986 0.562329
444 2 0.437671 0.686986 0.686986
88 1 0.686986 0.562329 0.562329
189 1 0.562329 0.562329 0.686986
318 1 0.562329 0.686986 0.562329
469 2 0.686986 0.686986 0.686986
13 1 0.939041 0.562329 0.562329
113 1 0.936301 0.562329 0.562329
214 1 0.811644 0.562329 0.686986
343 1 0.811644 0.686986 0.562329
394 2 0.939041 0.686986 0.686986
494 2 0.936301 0.686986 0.686986
43 1 0.188356 0.811644 0.562329
144 1 0.0636986 0.811644 0.686986
244 1 0.0609588 0.811644 0.686986
253 1 0.0636986 0.939041 0.562329
273 1 0.0636986 0.936301 0.562329
353 1 0.0609588 0.939041 0.562329
373 1 0.0609588 0.936301 0.562329
404 2 0.188356 0.939041 0.686986
424 2 0.188356 0.936301 0.686986
68 1 0.437671 0.811644 0.562329
169 1 0.313014 0.811644 0.686986
278 1 0.313014 0.939041 0.562329
298 1 0.313014 0.936301 0.562329
429 2 0.437671 0.939041 0.686986
449 2 0.437671 0.936301 0.686986
93 1 0.686986 0.811644 0.562329
194 1 0.562329 0.811644 0.686986
303 1 0.562329 0.939041 0.562329
323 1 0.562329 0.936301 0.562329
454 2 0.686986 0.939041 0.686986
474 2 0.686986 0.936301 0.686986
18 1 0.939041 0.811644 0.562329
118 1 0.936301 0.811644 0.562329
219 1 0.811644 0.811644 0.686986
328 1 0.811644 0.939041 0.562329
348 1 0.811644 0.936301 0.562329
379 2 0.939041 0.939041 0.686986
399 2 0.939041 0.936301 0.686986
479 2 0.936301 0.939041 0.686986
499 2 0.936301 0.936301 0.686986
29 1 0.188356 0.0636986 0.811644
49 1 0.188356 0.0609588 0.811644
126 1 0.0636986 0.0636986 0.939041
130 1 0.0636986 0.0636986 0.936301
146 1 0.0636986 0.0609588 0.939041
150 1 0.0636986 0.0609588 0.936301
226 1 0.0609588 0.0636986 0.939041
230 1 0.0609588 0.0636986 0.936301
246 1 0.0609588 0.0609588 0.939041
250 1 0.0609588 0.0609588 0.936301
259 1 0.0636986 0.188356 0.811644
359 1 0.0609588 0.188356 0.811644
406 2 0.188356 0.188356 0.939041
410 2 0.188356 0.188356 0.936301
54 1 0.437671 0.0636986 0.811644
74 1 0.437671 0.0609588 0.811644
151 1 0.313014 0.0636986 0.939041
155 1 0.313014 0.0636986 0.936301
171 1 0.313014 0.0609588 0.939041
175 1 0.313014 0.0609588 0.936301
284 1 0.313014 0.188356 0.811644
431 2 0.437671 0.188356 0.939041
435 2 0.437671 0.188356 0.936301
79 1 0.686986 0.0636986 0.811644
99 1 0.686986 0.0609588 0.811644
176 1 0.562329 0.0636986 0.939041
180 1 0.562329 0.0636986 0.936301
196 1 0.562329 0.0609588 0.939041
200 1 0.562329 0.0609588 0.936301
309 1 0.562329 0.188356 0.811644
456 2 0.686986 0.188356 0.939041
460 2 0.686986 0.188356 0.936301
4 1 0.939041 0.0636986 0.811644
24 1 0.939041 0.0609588 0.811644
104 1 0.936301 0.0636986 0.811644
124 1 0.936301 0.0609588 0.811644
201 1 0.811644 0.0636986 0.939041
205 1 0.811644 0.0636986 0.936301
221 1 0.811644 0.0609588 0.939041
225 1 0.811644 0.0609588 0.936301
334 1 0.811644 0.188356 0.811644
381 2 0.939041 0.188356 0.939041
385 2 0.939041 0.188356 0.936301
481 2 0.936301 0.188356 0.939041
485 2 0.936301 0.188356 0.936301
34 1 0.188356 0.313014 0.811644
131 1 0.0636986 0.313014 0.939041
135 1 0.0636986 0.313014 0.936301
231 1 0.0609588 0.313014 0.939041
235 1 0.0609588 0.313014 0.936301
264 1 0.0636986 0.437671 0.811644
364 1 0.0609588 0.437671 0.811644
411 2 0.188356 0.437671 0.939041
415 2 0.188356 0.437671 0.936301
59 1 0.437671 0.313014 0.811644
156 1 0.313014 0.313014 0.939041
160 1 0.313014 0.313014 0.936301
289 1 0.313014 0.437671 0.811644
436 2 0.437671 0.437671 0.939041
440 2 0.437671 0.437671 0.936301
84 1 0.686986 0.313014 0.811644
181 1 0.562329 0.313014 0.939041
185 1 0.562329 0.313014 0.936301
314 1 0.562329 0.437671 0.811644
461 2 0.686986 0.437671 0.939041
465 2 0.686986 0.437671 0.936301
9 1 0.939041 0.313014 0.811644
109 1 0.936301 0.313014 0.811644
206 1 0.811644 0.313014 0.939041
210 1 0.811644 0.313014 0.936301
339 1 0.811644 0.437671 0.811644
386 2 0.939041 0.437671 0.939041
390 2 0.939041 0.437671 0.936301
486 2 0.936301 0.437671 0.939041
490 2 0.936301 0.437671 0.936301
39 1 0.188356 0.562329 0.811644
136 1 0.0636986 0.562329 0.939041
140 1 0.0636986 0.562329 0.936301
236 1 0.0609588 0.562329 0.939041
240 1 0.0609588 0.562329 0.936301
269 1 0.0636986 0.686986 0.811644
369 1 0.0609588 0.686986 0.811644
416 2 0.188356 0.686986 0.939041
420 2 0.188356 0.686986 0.936301
64 1 0.437671 0.562329 0.811644
161 1 0.313014 0.562329 0.939041
165 1 0.313014 0.562329 0.936301
294 1 0.313014 0.686986 0.811644
441 2 0.437671 0.686986 0.939041
445 2 0.437671 0.686986 0.936301
89 1 0.686986 0.562329 0.811644
186 1 0.562329 0.562329 0.939041
190 1 0.562329 0.562329 0.936301
319 1 0.562329 0.686986 0.811644
466 2 0.686986 0.686986 0.939041
470 2 0.686986 0.686986 0.936301
14 1 0.939041 0.562329 0.811644
114 1 0.936301 0.562329 0.811644
211 1 0.811644 0.562329 0.939041
215 1 0.811644 0.562329 0.936301
344 1 0.811644 0.686986 0.811644
391 2 0.939041 0.686986 0.939041
395 2 0.939041 0.686986 0.936301
491 2 0.936301 0.686986 0.939041
495 2 0.936301 0.686986 0.936301
44 1 0.188356 0.811644 0.811644
141 1 0.0636986 0.811644 0.939041
145 1 0.0636986 0.811644 0.936301
241 1 0.0609588 0.811644 0.939041
245 1 0.0609588 0.811644 0.936301
254 1 0.0636986 0.939041 0.811644
274 1 0.0636986 0.936301 0.811644
354 1 0.0609588 0.939041 0.811644
374 1 0.0609588 0.936301 0.811644
401 2 0.188356 0.939041 0.939041
405 2 0.188356 0.939041 0.936301
421 2 0.188356 0.936301 0.939041
425 2 0.188356 0.936301 0.936301
69 1 0.437671 0.811644 0.811644
166 1 0.313014 0.811644 0.939041
170 1 0.313014 0.811644 0.936301
279 1 0.313014 0.939041 0.811644
299 1 0.313014 0.936301 0.811644
426 2 0.437671 0.939041 0.939041
430 2 0.437671 0.939041 0.936301
446 2 0.437671 0.936301 0.939041
450 2 0.437671 0.936301 0.936301
94 1 0.686986 0.811644 0.811644
191 1 0.562329 0.811644 0.939041
195 1 0.562329 0.811644 0.936301
304 1 0.562329 0.939041 0.811644
324 1 0.562329 0.936301 0.811644
451 2 0.686986 0.939041 0.939041
455 2 0.686986 0.939041 0.936301
471 2 0.686986 0.936301 0.939041
475 2 0.686986 0.936301 0.936301
19 1 0.939041 0.811644 0.811644
119 1 0.936301 0.811644 0.811644
216 1 0.811644 0.811644 0.939041
220 1 0.811644 0.811644 0.936301
329 1 0.811644 0.939041 0.811644
349 1 0.811644 0.936301 0.811644
376 2 0.939041 0.939041 0.939041
380 2 0.939041 0.939041 0.936301
396 2 0.939041 0.936301 0.939041
400 2 0.939041 0.936301 0.936301
476 2 0.936301 0.939041 0.939041
480 2 0.936301 0.939041 0.936301
496 2 0.936301 0.936301 0.939041
500 2 0.936301 0.936301 0.936301
ITEM: TIMESTEP
100
ITEM: NUMBER OF ATOMS
500
ITEM: BOX BOUNDS pp pp pp
8.9000000000000001e-01 1.5490000000000000e+01
8.9000000000000001e-01 1.5490000000000000e+01
8.9000000000000001e-01 1.5490000000000000e+01
ITEM: ATOMS id type xs ys zs
26 1 0.220364 0.128944 0.128865
30 1 0.2134 0.114801 0.980755
46 1 0.216589 0.97982 0.120193
50 1 0.150314 0.0622595 0.0675773
127 1 0.125674 0.125674 0.217388
147 1 0.119224 0.981556 0.21475
227 1 0.98156 0.119229 0.214752
247 1 0.0582342 0.0582335 0.146829
256 1 0.128941 0.220361 0.128861
260 1 0.114803 0.213398 0.98076
356 1 0.979817 0.216593 0.120194
360 1 0.0622473 0.15031 0.0675791
407 2 0.225865 0.225866 0.226765
51 1 0.464558 0.197987 0.197519
55 1 0.43739 0.156726 0.905348
71 1 0.43758 0.905644 0.157153
75 1 0.439753 0.116767 0.116189
152 1 0.34541 0.148639 0.239867
172 1 0.389592 0.0531058 0.307823
281 1 0.344656 0.240328 0.147279
285 1 0.389612 0.307908 0.0521365
432 2 0.401446 0.281775 0.281725
76 1 0.639395 0.193935 0.19469
80 1 0.613825 0.146192 0.892177
96 1 0.616144 0.892857 0.143498
100 1 0.668879 0.0948536 0.100146
177 1 0.556123 0.13684 0.25318
197 1 0.550443 0.0163351 0.291456
306 1 0.556538 0.25288 0.136874
310 1 0.549904 0.291945 0.0170049
457 2 0.635456 0.299362 0.299189
1 1 0.879487 0.168104 0.169844
5 1 0.923018 0.166972 0.0157781
21 1 0.922274 0.0111134 0.164913
25 1 0.968466 0.0601329 0.0572232
101 1 0.753301 0.158272 0.158132
105 1 0.857346 0.081231 0.953012
121 1 0.868147 0.9525 0.0626816
125 1 0.852605 0.0823097 0.0832659
202 1 0.697204 0.114714 0.27181
222 1 0.748807 0.946228 0.280828
331 1 0.696363 0.271442 0.115362
335 1 0.746802 0.28414 0.947531
382 2 0.0275907 0.251419 0.251154
482 2 0.787656 0.246241 0.245812
31 1 0.240328 0.344656 0.147279
35 1 0.307907 0.389612 0.0521365
132 1 0.14864 0.34541 0.239867
232 1 0.0531063 0.389593 0.307824
261 1 0.197987 0.464558 0.197518
265 1 0.156725 0.437388 0.905347
361 1 0.905645 0.437582 0.157154
365 1 0.116768 0.439753 0.116188
412 2 0.281775 0.401446 0.281725
56 1 0.470992 0.341547 0.126279
60 1 0.465328 0.357251 0.956263
157 1 0.353601 0.353601 0.192011
286 1 0.341546 0.470992 0.126279
290 1 0.357251 0.465328 0.956263
437 2 0.445332 0.445332 0.22182
81 1 0.630846 0.36022 0.172464
85 1 0.696365 0.361628 0.0327054
182 1 0.52312 0.333819 0.238929
311 1 0.58101 0.395854 0.0698276
315 1 0.575785 0.442012 0.942216
462 2 0.610916 0.479742 0.216195
6 1 0.0653272 0.323183 0.150721
10 1 0.959946 0.348055 0.0929047
106 1 0.904108 0.303384 0.199271
110 1 0.862704 0.374973 0.0332562
207 1 0.738024 0.364381 0.240473
336 1 0.804024 0.355207 0.137087
340 1 0.727892 0.43997 0.121712
387 2 0.0190149 0.442223 0.207865
487 2 0.853024 0.411235 0.279954
36 1 0.252879 0.556539 0.136874
40 1 0.291944 0.549904 0.0170052
137 1 0.136841 0.556123 0.253181
237 1 0.0163348 0.550443 0.291456
266 1 0.193933 0.639397 0.19469
270 1 0.146196 0.613823 0.892176
366 1 0.892859 0.616148 0.143493
370 1 0.0948455 0.668878 0.100154
417 2 0.299362 0.635456 0.299189
61 1 0.395853 0.581009 0.0698277
65 1 0.442012 0.575786 0.942216
162 1 0.333819 0.523119 0.238929
291 1 0.36022 0.630845 0.172464
295 1 0.36163 0.696364 0.0327086
442 2 0.479742 0.610915 0.216196
86 1 0.677545 0.550318 0.141419
90 1 0.603132 0.518263 0.0567881
187 1 0.513834 0.513833 0.14647
316 1 0.550316 0.677544 0.141419
320 1 0.518259 0.60313 0.0567891
467 2 0.655773 0.655773 0.204023
11 1 0.0657777 0.55225 0.152692
15 1 0.956272 0.528446 0.0829602
111 1 0.896835 0.53853 0.236407
115 1 0.823517 0.516367 0.108328
212 1 0.769421 0.526472 0.22337
341 1 0.77107 0.686416 0.121112
345 1 0.74615 0.585828 0.0576834
392 2 0.00215837 0.65674 0.202576
492 2 0.824855 0.685089 0.235514
41 1 0.271441 0.696362 0.115363
45 1 0.284146 0.746799 0.947535
142 1 0.114713 0.697205 0.271811
242 1 0.946224 0.748813 0.280821
251 1 0.168098 0.879486 0.169836
255 1 0.166972 0.923019 0.0157759
271 1 0.158271 0.753303 0.158132
275 1 0.0812556 0.857332 0.953009
351 1 0.0110992 0.922268 0.164905
355 1 0.0601461 0.968474 0.0572291
371 1 0.952486 0.868182 0.0626262
375 1 0.0822969 0.852608 0.083261
402 2 0.251417 0.0275898 0.251153
422 2 0.24624 0.787655 0.245811
66 1 0.355202 0.804024 0.137086
70 1 0.439969 0.727892 0.121715
167 1 0.364382 0.738024 0.240473
276 1 0.323183 0.0653265 0.150721
280 1 0.348054 0.959946 0.0929042
296 1 0.303381 0.904108 0.19927
300 1 0.374974 0.862703 0.033257
427 2 0.442224 0.0190148 0.207864
447 2 0.411233 0.853025 0.279953
91 1 0.686402 0.771066 0.121119
95 1 0.585823 0.746147 0.0576807
192 1 0.526472 0.769421 0.22337
301 1 0.552253 0.0657765 0.152691
305 1 0.528445 0.956271 0.0829601
321 1 0.538527 0.896835 0.236409
325 1 0.516366 0.823516 0.108327
452 2 0.656739 0.00215835 0.202578
472 2 0.68509 0.824856 0.235522
16 1 0.00990184 0.763323 0.125477
20 1 0.931643 0.699396 0.0637348
116 1 0.924026 0.837299 0.196983
120 1 0.859616 0.776696 0.116304
217 1 0.815335 0.81533 0.26877
326 1 0.76331 0.00991354 0.125481
330 1 0.699393 0.93164 0.0637413
346 1 0.837299 0.924029 0.197002
350 1 0.776686 0.859615 0.116328
377 2 0.994913 0.994911 0.276236
397 2 0.0606677 0.823863 0.245392
477 2 0.823864 0.0606671 0.245393
497 2 0.901003 0.901004 0.332003
27 1 0.240247 0.148175 0.344911
47 1 0.30877 0.053011 0.390355
128 1 0.197693 0.197693 0.464406
148 1 0.157198 0.905928 0.437077
228 1 0.905928 0.157197 0.437076
248 1 0.116527 0.116528 0.439416
257 1 0.148176 0.240247 0.344911
357 1 0.0530112 0.30877 0.390355
408 2 0.281821 0.281821 0.401615
52 1 0.471345 0.12622 0.341997
72 1 0.46593 0.956591 0.357563
153 1 0.341437 0.126644 0.472143
173 1 0.357146 0.956349 0.466563
282 1 0.353778 0.191975 0.353981
433 2 0.445388 0.222094 0.445131
77 1 0.631437 0.171999 0.36001
97 1 0.697113 0.0312031 0.360463
178 1 0.581159 0.0695765 0.395753
198 1 0.575929 0.942313 0.441651
307 1 0.523434 0.238871 0.333727
458 2 0.611135 0.216484 0.479129
2 1 0.0654731 0.151051 0.322441
22 1 0.959712 0.093581 0.346669
102 1 0.904154 0.199579 0.302289
122 1 0.86301 0.0328845 0.373398
203 1 0.804127 0.13783 0.356727
223 1 0.727357 0.120238 0.439787
332 1 0.737955 0.240799 0.363522
383 2 0.0193986 0.207923 0.441593
483 2 0.85289 0.280129 0.410744
32 1 0.191975 0.353778 0.353981
133 1 0.126644 0.341436 0.472143
233 1 0.956349 0.357146 0.466563
262 1 0.12622 0.471346 0.341997
362 1 0.956591 0.465931 0.357563
413 2 0.222094 0.445388 0.445131
57 1 0.45958 0.366151 0.366095
158 1 0.366292 0.366292 0.459319
287 1 0.366151 0.459579 0.366095
438 2 0.464473 0.464473 0.464347
82 1 0.627782 0.384254 0.384158
183 1 0.541829 0.324128 0.445887
312 1 0.541808 0.445845 0.323942
463 2 0.634347 0.470521 0.470273
7 1 0.945412 0.32835 0.328531
107 1 0.776465 0.386928 0.386929
208 1 0.708094 0.318573 0.453849
337 1 0.708227 0.453996 0.318775
388 2 0.0468593 0.454852 0.45562
488 2 0.861376 0.455518 0.455416
37 1 0.238871 0.523434 0.333727
138 1 0.0695762 0.58116 0.395753
238 1 0.942313 0.575929 0.441651
267 1 0.171998 0.631438 0.36001
367 1 0.0311996 0.697115 0.360462
418 2 0.216484 0.611135 0.479129
62 1 0.445844 0.541808 0.323942
163 1 0.324128 0.54183 0.445887
292 1 0.384254 0.627782 0.384158
443 2 0.470521 0.634347 0.470273
87 1 0.635356 0.551733 0.320846
188 1 0.545548 0.545548 0.411625
317 1 0.551732 0.635355 0.320846
468 2 0.646753 0.646752 0.447676
12 1 0.925866 0.629779 0.330039
112 1 0.833302 0.543574 0.347462
213 1 0.724687 0.543913 0.410097
342 1 0.737134 0.618785 0.299438
393 2 0.979167 0.70124 0.479255
493 2 0.826685 0.633887 0.459021
42 1 0.240799 0.737955 0.363521
143 1 0.137831 0.804128 0.356731
243 1 0.120235 0.727356 0.439787
252 1 0.151051 0.0654722 0.32244
272 1 0.199577 0.904152 0.302284
352 1 0.093583 0.959711 0.346671
372 1 0.0328827 0.863011 0.373395
403 2 0.207923 0.0193988 0.441593
423 2 0.280128 0.85289 0.410743
67 1 0.453996 0.708227 0.318776
168 1 0.318573 0.708094 0.453849
277 1 0.328348 0.945412 0.32853
297 1 0.386928 0.776465 0.386929
428 2 0.454852 0.0468591 0.45562
448 2 0.455518 0.861376 0.455416
92 1 0.618784 0.737132 0.29944
193 1 0.543914 0.724686 0.410098
302 1 0.629776 0.925865 0.33004
322 1 0.543573 0.833301 0.347463
453 2 0.701241 0.979167 0.479254
473 2 0.633888 0.826684 0.459021
17 1 0.934234 0.794089 0.39619
117 1 0.836633 0.722898 0.367516
218 1 0.717751 0.71775 0.366771
327 1 0.794091 0.934234 0.396193
347 1 0.722901 0.836632 0.367518
378 2 0.0305621 0.0305622 0.438008
398 2 0.983318 0.876033 0.496841
478 2 0.876034 0.983316 0.496843
498 2 0.811575 0.811573 0.464258
28 1 0.252515 0.137943 0.557101
48 1 0.29032 0.0166932 0.550494
129 1 0.193092 0.193092 0.641609
149 1 0.144928 0.893493 0.614706
229 1 0.893492 0.14493 0.614706
249 1 0.0972742 0.097272 0.670429
258 1 0.137943 0.252515 0.557102
358 1 0.0166929 0.290319 0.550494
409 2 0.299352 0.299352 0.635626
53 1 0.393931 0.0694891 0.581887
73 1 0.441339 0.942151 0.575948
154 1 0.359409 0.172429 0.631453
174 1 0.360905 0.0320906 0.698077
283 1 0.333912 0.239261 0.523373
434 2 0.478842 0.216335 0.610691
78 1 0.677515 0.142103 0.549835
98 1 0.60331 0.0568253 0.518844
179 1 0.549306 0.141611 0.676754
199 1 0.516227 0.0573574 0.601895
308 1 0.514031 0.146828 0.513438
459 2 0.655109 0.204698 0.655045
3 1 0.0658 0.152686 0.553211
23 1 0.955962 0.0834704 0.527124
103 1 0.896965 0.237322 0.537422
123 1 0.823339 0.108777 0.516195
204 1 0.769022 0.120247 0.688842
224 1 0.745907 0.0588367 0.585796
333 1 0.769386 0.223588 0.526251
384 2 0.00292633 0.202733 0.657236
484 2 0.824824 0.233922 0.683887
33 1 0.239261 0.333911 0.523373
134 1 0.172429 0.359408 0.631453
234 1 0.0320925 0.360905 0.698076
263 1 0.0694891 0.39393 0.581886
363 1 0.942151 0.441339 0.575948
414 2 0.216335 0.478842 0.610691
58 1 0.445671 0.324185 0.541682
159 1 0.3843 0.3843 0.628025
288 1 0.324185 0.445671 0.541681
439 2 0.470613 0.470613 0.63431
83 1 0.635214 0.321164 0.552059
184 1 0.550348 0.3211 0.634749
313 1 0.545651 0.412094 0.545406
464 2 0.646792 0.447948 0.646415
8 1 0.925965 0.329615 0.629726
108 1 0.833094 0.347785 0.543785
209 1 0.73731 0.299632 0.618901
338 1 0.724592 0.410155 0.543442
389 2 0.97881 0.478891 0.700791
489 2 0.826585 0.45931 0.633644
38 1 0.146828 0.514031 0.513438
139 1 0.141611 0.549305 0.676754
239 1 0.0573578 0.516225 0.601895
268 1 0.142103 0.677515 0.549835
368 1 0.0568249 0.60331 0.518845
419 2 0.204698 0.655108 0.655044
63 1 0.412094 0.545651 0.545406
164 1 0.3211 0.550347 0.634749
293 1 0.321164 0.635214 0.552059
444 2 0.447948 0.646792 0.646414
88 1 0.648056 0.560208 0.560067
189 1 0.560498 0.560497 0.648484
318 1 0.560208 0.648056 0.560067
469 2 0.685945 0.685945 0.686065
13 1 0.933165 0.561259 0.561397
113 1 0.776533 0.525953 0.525767
214 1 0.737492 0.558037 0.652021
343 1 0.737521 0.652039 0.558138
394 2 0.0134676 0.651561 0.651398
494 2 0.871405 0.643671 0.643516
43 1 0.223588 0.769386 0.526251
144 1 0.120244 0.769022 0.688848
244 1 0.0588379 0.745908 0.585798
253 1 0.152686 0.0658013 0.55321
273 1 0.237322 0.896965 0.537422
353 1 0.0834708 0.955963 0.527124
373 1 0.108778 0.823339 0.516196
404 2 0.202733 0.00292655 0.657234
424 2 0.233919 0.824824 0.683885
68 1 0.410155 0.724593 0.543441
169 1 0.299632 0.73731 0.618901
278 1 0.329615 0.925965 0.629726
298 1 0.347785 0.833094 0.543785
429 2 0.478893 0.97881 0.70079
449 2 0.45931 0.826585 0.633643
93 1 0.652038 0.737521 0.558139
194 1 0.558036 0.737492 0.652022
303 1 0.561259 0.933165 0.561397
323 1 0.525954 0.776533 0.525767
454 2 0.651562 0.0134675 0.651398
474 2 0.643672 0.871405 0.643516
18 1 0.932375 0.785181 0.5629
118 1 0.829599 0.726668 0.562083
219 1 0.778568 0.778567 0.662356
328 1 0.785181 0.932375 0.562901
348 1 0.726669 0.829599 0.562083
379 2 0.0101615 0.0101615 0.613448
399 2 0.000937219 0.835459 0.663894
479 2 0.835458 0.000939065 0.663895
499 2 0.863892 0.863893 0.644219
29 1 0.271486 0.114883 0.698148
49 1 0.282702 0.946984 0.748426
126 1 0.159768 0.15977 0.880814
130 1 0.156619 0.156618 0.756801
146 1 0.160439 0.00215525 0.919947
150 1 0.059174 0.934655 0.867456
226 1 0.00215618 0.160442 0.919949
230 1 0.934671 0.0591788 0.867453
246 1 0.066735 0.0667376 0.974615
250 1 0.0715778 0.0715734 0.855689
259 1 0.114884 0.271485 0.698148
359 1 0.946986 0.282705 0.748425
406 2 0.248689 0.248689 0.0263701
410 2 0.244561 0.244561 0.786794
54 1 0.355686 0.136733 0.805134
74 1 0.439129 0.12182 0.727468
151 1 0.322752 0.151065 0.0644698
155 1 0.297281 0.196655 0.903225
171 1 0.347447 0.0939574 0.959185
175 1 0.371753 0.0318003 0.862837
284 1 0.363642 0.240604 0.738481
431 2 0.442484 0.207608 0.0191382
435 2 0.40882 0.279079 0.85428
79 1 0.680935 0.123888 0.769651
99 1 0.583625 0.0568579 0.744379
176 1 0.554911 0.152217 0.0655543
180 1 0.536197 0.23826 0.89647
196 1 0.527992 0.0834727 0.955741
200 1 0.515747 0.1083 0.822653
309 1 0.525748 0.223521 0.769215
456 2 0.656203 0.204204 0.00165867
460 2 0.684284 0.238325 0.824614
4 1 0.0104817 0.125058 0.763154
24 1 0.930757 0.0657393 0.697209
104 1 0.921347 0.197222 0.832273
124 1 0.856685 0.11412 0.776614
201 1 0.756789 0.126858 0.016004
205 1 0.837889 0.205619 0.923481
221 1 0.697727 0.0674697 0.930445
225 1 0.773276 0.124551 0.858552
334 1 0.8147 0.271165 0.812648