ITEM: TIMESTEP
0
ITEM: NUMBER OF ATOMS
500
ITEM: BOX BOUNDS pp pp pp
8.9000000000000001e-01 1.5490000000000000e+01
8.9000000000000001e-01 1.5490000000000000e+01
8.9000000000000001e-01 1.5490000000000000e+01
ITEM: ATOMS id type xs ys zs
50 1 0.187559 0.114882 0.0415242
127 1 0.189039 0.148034 0.165792
227 1 0.0876558 0.127684 0.234229
247 1 0.0993 0.0663093 0.121646
256 1 0.123708 0.224352 0.0742226
360 1 0.0269667 0.161792 0.134725
355 1 0.0524677 0.00740011 0.0313463
402 2 0.244814 0.0372927 0.243563
26 1 0.288293 0.219583 0.143491
51 1 0.482174 0.180021 0.242195
75 1 0.440369 0.124206 0.14103
152 1 0.345096 0.13291 0.21953
281 1 0.405186 0.248731 0.116331
276 1 0.291728 0.0792536 0.117219
427 2 0.422149 0.011831 0.223778
406 2 0.25145 0.231336 0.00959281
151 1 0.35723 0.151041 0.0394201
431 2 0.470642 0.216317 0.00189244
426 2 0.445774 0.0325623 0.0443955
76 1 0.640572 0.18365 0.186525
100 1 0.666882 0.0971032 0.101415
301 1 0.545405 0.0412606 0.174311
452 2 0.675864 0.00460495 0.203067
176 1 0.55143 0.148856 0.0910729
456 2 0.652481 0.204473 0.0094026
451 2 0.61689 0.0134042 0.0253848
356 1 0.918316 0.24213 0.152064
1 1 0.938341 0.125732 0.212172
21 1 0.960328 0.0278811 0.122931
25 1 0.972738 0.112693 0.0231579
101 1 0.761725 0.175525 0.131745
121 1 0.877519 0.0270763 0.0264329
125 1 0.874226 0.134367 0.105167
482 2 0.8062 0.223117 0.240187
326 1 0.789359 0.0420962 0.123544
201 1 0.76218 0.123462 0.0127855
381 2 0.991057 0.248943 0.0284812
132 1 0.177612 0.282188 0.17473
261 1 0.217512 0.453328 0.127502
365 1 0.112445 0.388075 0.166526
412 2 0.249471 0.377799 0.240601
6 1 0.0466893 0.284834 0.159043
131 1 0.14456 0.352522 0.0405049
386 2 0.0367352 0.436012 0.0654245
285 1 0.406478 0.329663 0.0186086
432 2 0.38382 0.271779 0.246455
31 1 0.260191 0.33451 0.0898789
35 1 0.307465 0.393473 0.00051182
56 1 0.473195 0.361295 0.126726
157 1 0.355923 0.367574 0.166757
286 1 0.339234 0.464385 0.0985382
436 2 0.465915 0.459373 0.0347668
306 1 0.536866 0.25121 0.155042
310 1 0.567172 0.311613 0.0346972
331 1 0.680144 0.285302 0.116585
81 1 0.598961 0.375381 0.152532
85 1 0.709421 0.364119 0.0149939
182 1 0.526061 0.343678 0.246943
311 1 0.607387 0.428087 0.0432471
462 2 0.55791 0.49346 0.179303
207 1 0.739765 0.322657 0.218936
340 1 0.732189 0.434768 0.111106
337 1 0.686783 0.4232 0.22189
361 1 0.886093 0.49729 0.178211
10 1 0.952057 0.365064 0.139467
110 1 0.915459 0.36479 0.0233816
336 1 0.832212 0.380076 0.169928
387 2 0.983654 0.432763 0.247604
115 1 0.847548 0.457202 0.0631385
481 2 0.814106 0.288269 0.0696057
36 1 0.238751 0.590804 0.116559
137 1 0.124977 0.506941 0.197535
266 1 0.178567 0.619217 0.217982
370 1 0.0862099 0.641419 0.133021
11 1 0.0153976 0.546409 0.182713
271 1 0.151943 0.735806 0.171004
136 1 0.130541 0.542879 0.0750374
416 2 0.184101 0.661695 0.00671084
391 2 0.00782484 0.640348 0.0372639
40 1 0.309676 0.556717 0.0239188
61 1 0.401338 0.612108 0.063263
162 1 0.322035 0.54062 0.192168
291 1 0.345656 0.656907 0.158599
295 1 0.345968 0.72229 0.0156823
442 2 0.458242 0.630782 0.221374
187 1 0.446079 0.527513 0.144485
41 1 0.256262 0.717041 0.108452
70 1 0.425835 0.74925 0.113778
86 1 0.67258 0.535694 0.166356
90 1 0.640114 0.545111 0.0446176
316 1 0.53327 0.696267 0.14938
320 1 0.532579 0.599055 0.0775107
467 2 0.637954 0.652958 0.193475
341 1 0.744496 0.675282 0.113569
466 2 0.660348 0.663437 0.0132965
366 1 0.877429 0.623819 0.132164
15 1 0.949629 0.53487 0.0795594
212 1 0.781741 0.568898 0.202262
345 1 0.770874 0.552028 0.0749766
392 2 0.985613 0.686218 0.207217
492 2 0.808568 0.704932 0.240453
20 1 0.916749 0.72886 0.0706348
491 2 0.832301 0.654435 0.00205211
46 1 0.19336 0.994605 0.0907456
147 1 0.131977 0.980328 0.204425
251 1 0.170226 0.869348 0.192405
375 1 0.0999101 0.907936 0.0928939
397 2 0.0663404 0.834561 0.244951
141 1 0.100067 0.779813 0.0739599
421 2 0.228554 0.831348 0.0495627
71 1 0.44089 0.899146 0.152457
66 1 0.333851 0.810935 0.161481
280 1 0.354848 0.96938 0.099463
296 1 0.268782 0.911753 0.148789
300 1 0.378637 0.852432 0.0429425
96 1 0.628963 0.895173 0.131732
91 1 0.682333 0.779413 0.143675
95 1 0.591063 0.751997 0.0542165
192 1 0.525841 0.774754 0.246932
305 1 0.532402 0.956642 0.0891093
321 1 0.554341 0.906921 0.23179
325 1 0.528037 0.821937 0.127006
330 1 0.734969 0.951989 0.0667662
471 2 0.698217 0.844145 0.0209195
351 1 0.996438 0.920478 0.168851
371 1 0.981781 0.885869 0.0446088
16 1 0.994418 0.79191 0.136225
116 1 0.908091 0.836081 0.214158
120 1 0.818787 0.784208 0.138694
346 1 0.868983 0.945616 0.178405
350 1 0.756013 0.889455 0.183994
216 1 0.807848 0.789325 0.0182565
496 2 0.86012 0.897964 0.060054
407 2 0.206899 0.213863 0.283676
377 2 0.0166704 0.0206673 0.257126
128 1 0.228655 0.212534 0.494704
248 1 0.144096 0.132973 0.451376
2 1 0.0948093 0.175858 0.3409
383 2 0.0107702 0.228924 0.474396
252 1 0.174979 0.0812165 0.335044
378 2 0.0567972 0.0386734 0.432264
172 1 0.350939 0.0711193 0.330656
27 1 0.268701 0.133497 0.409048
52 1 0.477732 0.0831924 0.332269
153 1 0.36106 0.111484 0.485902
282 1 0.325715 0.198796 0.329817
433 2 0.434726 0.188479 0.402995
403 2 0.252201 0.0109656 0.433666
428 2 0.445699 0.0105965 0.449758
177 1 0.57924 0.11287 0.262775
202 1 0.727158 0.119695 0.260766
77 1 0.624415 0.160011 0.365148
97 1 0.700143 0.0534303 0.360646
178 1 0.575111 0.0619925 0.414997
307 1 0.523161 0.245075 0.335998
458 2 0.591606 0.249101 0.462545
223 1 0.726428 0.142592 0.446511
332 1 0.740533 0.221924 0.358755
308 1 0.521212 0.140937 0.492454
477 2 0.840899 0.0489661 0.251514
228 1 0.915285 0.150031 0.455557
22 1 0.9887 0.126792 0.366291
102 1 0.911393 0.188712 0.306254
122 1 0.931629 0.0242055 0.349239
203 1 0.825739 0.098552 0.379612
382 2 0.0250256 0.259498 0.282962
232 1 0.0920219 0.371193 0.287947
257 1 0.132409 0.260689 0.421765
357 1 0.0290965 0.33825 0.393444
32 1 0.189309 0.326006 0.340451
133 1 0.119222 0.367726 0.483247
262 1 0.103826 0.48684 0.31751
413 2 0.194807 0.439456 0.400743
388 2 0.0196904 0.470316 0.424418
437 2 0.407787 0.455496 0.257467
408 2 0.297877 0.2988 0.399662
57 1 0.437539 0.342653 0.333463
158 1 0.379666 0.389731 0.424247
287 1 0.312379 0.445931 0.341743
438 2 0.476927 0.478437 0.427146
58 1 0.458533 0.312007 0.483333
288 1 0.305479 0.456368 0.4972
457 2 0.639204 0.269299 0.280837
82 1 0.646455 0.389924 0.328742
183 1 0.541628 0.358037 0.397469
312 1 0.537966 0.458617 0.300926
463 2 0.653504 0.431375 0.447061
208 1 0.711208 0.307996 0.447243
106 1 0.903707 0.319215 0.25726
487 2 0.799071 0.462978 0.279984
483 2 0.857007 0.253684 0.409794
233 1 0.948848 0.372892 0.491993
362 1 0.914805 0.493616 0.342979
7 1 0.906695 0.363513 0.366181
107 1 0.773092 0.353263 0.343915
488 2 0.831672 0.444159 0.454774
237 1 0.0275086 0.583961 0.301578
142 1 0.101669 0.68671 0.288895
37 1 0.229015 0.506545 0.263928
138 1 0.0681828 0.599717 0.420678
267 1 0.167205 0.588841 0.353208
418 2 0.234884 0.597418 0.477153
42 1 0.204383 0.709021 0.36636
243 1 0.108207 0.710628 0.453416
38 1 0.133818 0.511294 0.492774
417 2 0.297535 0.616661 0.30904
167 1 0.351785 0.716553 0.261032
62 1 0.430422 0.565184 0.338879
163 1 0.327795 0.541207 0.408875
292 1 0.392922 0.650797 0.428371
67 1 0.481358 0.696003 0.341035
168 1 0.285475 0.719668 0.45655
443 2 0.510944 0.640765 0.489919
87 1 0.657061 0.518764 0.305334
188 1 0.57858 0.556672 0.425302
317 1 0.553715 0.586305 0.31473
468 2 0.67399 0.637808 0.43363
213 1 0.743603 0.515789 0.397142
342 1 0.724615 0.62046 0.302119
92 1 0.613695 0.696334 0.308584
193 1 0.573926 0.732053 0.418417
218 1 0.734034 0.738334 0.355257
111 1 0.899883 0.596053 0.268042
242 1 0.914522 0.743642 0.30438
238 1 0.917372 0.556625 0.461889
12 1 0.95484 0.649018 0.383743
112 1 0.829109 0.597527 0.372361
117 1 0.839214 0.716126 0.408883
422 2 0.237754 0.77162 0.256349
148 1 0.172276 0.916884 0.434192
367 1 0.0289734 0.755715 0.35566
143 1 0.137672 0.811684 0.394684
272 1 0.212186 0.887374 0.309286
352 1 0.118518 0.974776 0.334116
372 1 0.0462809 0.886519 0.358901
398 2 0.0146367 0.879957 0.484471
447 2 0.410462 0.837244 0.270302
47 1 0.350603 0.954477 0.37011
72 1 0.475996 0.939723 0.329111
173 1 0.377997 0.907144 0.493201
423 2 0.288345 0.842704 0.407954
277 1 0.312319 0.93032 0.259287
297 1 0.381299 0.759594 0.370669
448 2 0.460949 0.825717 0.447469
197 1 0.592885 0.996761 0.310631
472 2 0.664786 0.820654 0.270909
198 1 0.56283 0.929242 0.44407
302 1 0.665778 0.914087 0.373645
322 1 0.553255 0.840445 0.35257
453 2 0.723779 0.987576 0.47807
473 2 0.67572 0.814031 0.460179
222 1 0.757551 0.95687 0.30118
217 1 0.804174 0.837746 0.290088
497 2 0.922798 0.899887 0.332694
17 1 0.926493 0.802926 0.424765
327 1 0.827084 0.963387 0.397717
347 1 0.791994 0.846698 0.411479
478 2 0.899168 0.987395 0.49883
129 1 0.192986 0.182682 0.642765
249 1 0.114637 0.0870555 0.648524
3 1 0.078337 0.151847 0.551047
384 2 0.0147249 0.202009 0.651562
253 1 0.177763 0.0514893 0.539235
379 2 0.0242614 0.00251185 0.610793
259 1 0.130765 0.249486 0.729468
28 1 0.266854 0.120262 0.567914
53 1 0.376545 0.0450063 0.590042
154 1 0.356971 0.154552 0.645853
174 1 0.355277 0.00618582 0.703104
283 1 0.350293 0.235372 0.515152
434 2 0.459259 0.202321 0.585417
199 1 0.49897 0.0416564 0.567341
29 1 0.272945 0.0996921 0.708983
74 1 0.439899 0.0956265 0.719867
284 1 0.353896 0.235397 0.745132
309 1 0.479794 0.216177 0.728312
78 1 0.639764 0.129759 0.531542
98 1 0.609024 0.0145955 0.522523
179 1 0.538719 0.119071 0.649731
459 2 0.633533 0.201246 0.644808
204 1 0.724878 0.149297 0.714936
224 1 0.742732 0.0935954 0.610601
333 1 0.739339 0.220531 0.540751
454 2 0.65402 0.00865258 0.636888
99 1 0.589982 0.0484929 0.730896
229 1 0.910972 0.11918 0.613078
23 1 0.977398 0.0783006 0.527169
103 1 0.860831 0.208867 0.550529
123 1 0.813714 0.0893444 0.51585
484 2 0.825068 0.212589 0.676571
479 2 0.826343 0.020649 0.669724
24 1 0.940218 0.0690535 0.718775
258 1 0.13253 0.259211 0.564388
33 1 0.237248 0.335811 0.521005
134 1 0.151159 0.344291 0.651123
234 1 0.0307693 0.329511 0.701795
263 1 0.045258 0.3619 0.579116
414 2 0.199472 0.449239 0.586287
239 1 0.0389308 0.48339 0.569166
34 1 0.239577 0.347837 0.743606
364 1 0.0954251 0.436362 0.72167
39 1 0.222374 0.467296 0.719836
409 2 0.283123 0.27655 0.639735
159 1 0.365589 0.36186 0.5547
439 2 0.450169 0.460663 0.597367
59 1 0.420375 0.31748 0.667548
289 1 0.325304 0.416835 0.666663
83 1 0.646359 0.308369 0.567212
184 1 0.526105 0.314242 0.594635
313 1 0.540544 0.411367 0.523997
464 2 0.63073 0.432771 0.629366
338 1 0.734066 0.413916 0.55258
84 1 0.574422 0.292985 0.708414
314 1 0.51585 0.400987 0.702456
339 1 0.678572 0.354341 0.72935
358 1 0.948524 0.286654 0.576591
363 1 0.910736 0.472844 0.562321
8 1 0.871945 0.3658 0.628305
108 1 0.819511 0.324844 0.519061
209 1 0.752155 0.315676 0.635715
389 2 0.963825 0.454025 0.681956
359 1 0.91727 0.29836 0.721488
109 1 0.79189 0.408756 0.715964
139 1 0.114976 0.534009 0.64982
268 1 0.130699 0.629449 0.548569
368 1 0.00845949 0.596246 0.53683
419 2 0.215403 0.632258 0.652641
394 2 0.0225388 0.632342 0.664718
43 1 0.196707 0.749247 0.533928
244 1 0.118423 0.724787 0.641594
63 1 0.402352 0.545838 0.513346
164 1 0.303052 0.533787 0.607024
293 1 0.337934 0.646279 0.553456
444 2 0.41342 0.629182 0.652984
68 1 0.420207 0.731844 0.532609
169 1 0.295006 0.730506 0.632988
194 1 0.49821 0.705074 0.701292
64 1 0.395439 0.5131 0.7138
294 1 0.28581 0.56495 0.748614
69 1 0.334859 0.679131 0.749455
88 1 0.60454 0.528901 0.538878
189 1 0.527577 0.56497 0.6256
318 1 0.567927 0.675633 0.60066
469 2 0.678456 0.698198 0.72195
113 1 0.733124 0.548224 0.521206
214 1 0.678249 0.618702 0.604036
343 1 0.71415 0.709698 0.5336
89 1 0.635241 0.541456 0.693668
190 1 0.516931 0.5161 0.741186
114 1 0.747158 0.582519 0.715541
393 2 0.983872 0.712158 0.503583
493 2 0.823953 0.641523 0.519474
489 2 0.795039 0.50369 0.627231
13 1 0.906076 0.585148 0.613008
494 2 0.84405 0.664735 0.697191
118 1 0.895722 0.724485 0.590701
14 1 0.936584 0.570294 0.749704
19 1 0.987358 0.730675 0.739583
149 1 0.140008 0.884496 0.603519
273 1 0.226794 0.866294 0.53104
353 1 0.102304 0.95923 0.518602
373 1 0.0739292 0.794413 0.552362
404 2 0.205865 0.987769 0.65449
424 2 0.210027 0.811599 0.685918
354 1 0.0699444 0.909491 0.693374
48 1 0.29312 0.968065 0.554212
73 1 0.452066 0.92437 0.586452
278 1 0.339353 0.889507 0.644165
298 1 0.331549 0.808451 0.553494
429 2 0.484879 0.965649 0.698172
449 2 0.472437 0.803581 0.627472
49 1 0.266192 0.922722 0.746223
299 1 0.382434 0.787308 0.718662
93 1 0.64389 0.772626 0.619377
303 1 0.572312 0.90446 0.567085
323 1 0.562686 0.789119 0.533606
474 2 0.638413 0.873273 0.706305
348 1 0.703072 0.88234 0.578447
498 2 0.845666 0.825082 0.525815
18 1 0.910136 0.912278 0.646112
219 1 0.771868 0.76679 0.623846
328 1 0.815821 0.931966 0.572937
399 2 0.98874 0.812228 0.644239
499 2 0.82388 0.841478 0.708569
329 1 0.75209 0.946335 0.74834
30 1 0.24159 0.0939568 0.935515
126 1 0.150937 0.152082 0.880927
130 1 0.167298 0.128541 0.762361
146 1 0.134846 0.0183359 0.935674
246 1 0.082943 0.128315 0.979567
250 1 0.0473247 0.0627185 0.860518
410 2 0.242115 0.23328 0.818432
4 1 0.0419615 0.118408 0.752339
385 2 0.0491489 0.22845 0.837159
254 1 0.108032 0.00893638 0.75624
405 2 0.2484 0.0354592 0.82821
55 1 0.452266 0.165121 0.881892
54 1 0.361105 0.129123 0.802217
155 1 0.326355 0.185724 0.908663
171 1 0.377261 0.0716314 0.93828
175 1 0.380797 0.00763022 0.835855
80 1 0.615895 0.136219 0.901137
79 1 0.584188 0.207403 0.794374
196 1 0.527841 0.0960071 0.96909
200 1 0.526136 0.108009 0.807891
460 2 0.702299 0.240328 0.803837
221 1 0.654043 0.0215833 0.909021
225 1 0.741636 0.148759 0.887609
430 2 0.502997 0.00305085 0.876409
455 2 0.691494 0.0528512 0.795544
5 1 0.869449 0.195712 0.991832
105 1 0.85414 0.0952284 0.917974
226 1 0.965412 0.150155 0.902738
230 1 0.920759 0.0306599 0.8399
104 1 0.931754 0.186617 0.776646
124 1 0.827431 0.109761 0.786858
205 1 0.853464 0.219243 0.86625
260 1 0.124336 0.255708 0.94767
265 1 0.116753 0.423183 0.922778
135 1 0.213736 0.334032 0.914204
231 1 0.0338764 0.34352 0.953635
235 1 0.0182668 0.344446 0.823896
264 1 0.139072 0.357347 0.814328
411 2 0.210035 0.477948 0.989954
390 2 0.00475577 0.470267 0.858757
240 1 0.163279 0.483275 0.826873
290 1 0.372986 0.478212 0.942124
435 2 0.440189 0.293317 0.83477
415 2 0.305402 0.406787 0.838297
156 1 0.345127 0.304861 0.919856
160 1 0.406209 0.396611 0.764011
440 2 0.480529 0.471809 0.854807
60 1 0.500681 0.366163 0.9403
315 1 0.606046 0.444903 0.92271
180 1 0.564507 0.257723 0.905381
181 1 0.66289 0.33532 0.900525
185 1 0.565836 0.360856 0.815435
465 2 0.652419 0.47094 0.796571
335 1 0.758856 0.264698 0.943424
334 1 0.812872 0.303773 0.785725
485 2 0.905168 0.326535 0.896944
9 1 0.907701 0.404223 0.789018
206 1 0.809093 0.404839 0.948321
210 1 0.754512 0.396726 0.84319
270 1 0.166229 0.582106 0.904966
144 1 0.103053 0.713552 0.768397
236 1 0.0572531 0.537096 0.965773
269 1 0.162928 0.593846 0.76514
369 1 0.0518024 0.546549 0.776939
420 2 0.223615 0.693077 0.827877
395 2 0.0536046 0.643748 0.869837
241 1 0.0750275 0.720334 0.971121
65 1 0.430379 0.596048 0.941442
140 1 0.271514 0.526238 0.872375
161 1 0.307889 0.63358 0.927076
165 1 0.379595 0.555051 0.828679
441 2 0.485816 0.703729 0.993762
445 2 0.450547 0.660587 0.820731
170 1 0.360328 0.742862 0.873257
461 2 0.728195 0.507739 0.953128
186 1 0.540096 0.545296 0.958916
319 1 0.565774 0.622556 0.75754
470 2 0.606715 0.618326 0.877766
215 1 0.713409 0.57251 0.840474
94 1 0.661681 0.746976 0.850149
195 1 0.537614 0.733397 0.878649
220 1 0.741583 0.717119 0.933884
486 2 0.908654 0.51176 0.956266
490 2 0.830742 0.510395 0.799911
211 1 0.830154 0.584913 0.904845
344 1 0.771184 0.680169 0.820876
495 2 0.916292 0.655671 0.857952
255 1 0.184033 0.922207 0.978025
275 1 0.0845072 0.861734 0.970657
150 1 0.0637331 0.929737 0.875423
145 1 0.235398 0.864874 0.886639
245 1 0.133941 0.785907 0.888984
274 1 0.169015 0.931086 0.819462
374 1 0.116322 0.832682 0.774177
45 1 0.253208 0.76112 0.945646
44 1 0.286353 0.806474 0.794112
401 2 0.28707 0.990349 0.995282
425 2 0.355234 0.901675 0.909072
166 1 0.434474 0.808379 0.931753
279 1 0.38732 0.898514 0.772702
450 2 0.490504 0.839896 0.81565
446 2 0.514128 0.882762 0.993101
191 1 0.607506 0.80844 0.946716
304 1 0.563555 0.93676 0.79049
324 1 0.572493 0.77123 0.750024
475 2 0.643981 0.902785 0.878091
349 1 0.722742 0.837222 0.803569
119 1 0.876169 0.754262 0.790081
376 2 0.961929 0.969994 0.942348
380 2 0.969421 0.945143 0.76175
396 2 0.961416 0.786466 0.9635
400 2 0.991564 0.822633 0.825089
476 2 0.765642 0.997285 0.953578
480 2 0.828009 0.955319 0.83939
500 2 0.823437 0.818677 0.89275
ITEM: TIMESTEP
100
ITEM: NUMBER OF ATOMS
500
ITEM: BOX BOUNDS pp pp pp
8.9000000000000001e-01 1.5490000000000000e+01
8.9000000000000001e-01 1.5490000000000000e+01
8.9000000000000001e-01 1.5490000000000000e+01
ITEM: ATOMS id type xs ys zs
50 1 0.187559 0.114882 0.0415242
127 1 0.189039 0.148034 0.165792
227 1 0.0876558 0.127684 0.234229
247 1 0.0993 0.0663093 0.121646
256 1 0.123708 0.224352 0.0742226
360 1 0.0269667 0.161792 0.134725
355 1 0.0524677 0.00740011 0.0313463
402 2 0.244814 0.0372927 0.243563
26 1 0.288293 0.219583 0.143491
51 1 0.482174 0.180021 0.242195
75 1 0.440369 0.124206 0.14103
152 1 0.345096 0.13291 0.21953
281 1 0.405186 0.248731 0.116331
276 1 0.291728 0.0792536 0.117219
427 2 0.422149 0.011831 0.223778
406 2 0.25145 0.231336 0.00959281
151 1 0.35723 0.151041 0.0394201
431 2 0.470642 0.216317 0.00189244
426 2 0.445774 0.0325623 0.0443955
76 1 0.640572 0.18365 0.186525
100 1 0.666882 0.0971032 0.101415
301 1 0.545405 0.0412606 0.174311
452 2 0.675864 0.00460495 0.203067
176 1 0.55143 0.148856 0.0910729
456 2 0.652481 0.204473 0.0094026
451 2 0.61689 0.0134042 0.0253848
356 1 0.918316 0.24213 0.152064
1 1 0.938341 0.125732 0.212172
21 1 0.960328 0.0278811 0.122931
25 1 0.972738 0.112693 0.0231579
101 1 0.761725 0.175525 0.131745
121 1 0.877519 0.0270763 0.0264329
125 1 0.874226 0.134367 0.105167
482 2 0.8062 0.223117 0.240187
326 1 0.789359 0.0420962 0.123544
201 1 0.76218 0.123462 0.0127855
381 2 0.991057 0.248943 0.0284812
132 1 0.177612 0.282188 0.17473
261 1 0.217512 0.453328 0.127502
365 1 0.112445 0.388075 0.166526
412 2 0.249471 0.377799 0.240601
6 1 0.0466893 0.284834 0.159043
131 1 0.14456 0.352522 0.0405049
386 2 0.0367352 0.436012 0.0654245
285 1 0.406478 0.329663 0.0186086
432 2 0.38382 0.271779 0.246455
31 1 0.260191 0.33451 0.0898789
35 1 0.307465 0.393473 0.00051182
56 1 0.473195 0.361295 0.126726
157 1 0.355923 0.367574 0.166757
286 1 0.339234 0.464385 0.0985382
436 2 0.465915 0.459373 0.0347668
306 1 0.536866 0.25121 0.155042
310 1 0.567172 0.311613 0.0346972
331 1 0.680144 0.285302 0.116585
81 1 0.598961 0.375381 0.152532
85 1 0.709421 0.364119 0.0149939
182 1 0.526061 0.343678 0.246943
311 1 0.607387 0.428087 0.0432471
462 2 0.55791 0.49346 0.179303
207 1 0.739765 0.322657 0.218936
340 1 0.732189 0.434768 0.111106
337 1 0.686783 0.4232 0.22189
361 1 0.886093 0.49729 0.178211
10 1 0.952057 0.365064 0.139467
110 1 0.915459 0.36479 0.0233816
336 1 0.832212 0.380076 0.169928
387 2 0.983654 0.432763 0.247604
115 1 0.847548 0.457202 0.0631385
481 2 0.814106 0.288269 0.0696057
36 1 0.238751 0.590804 0.116559
137 1 0.124977 0.506941 0.197535
266 1 0.178567 0.619217 0.217982
370 1 0.0862099 0.641419 0.133021
11 1 0.0153976 0.546409 0.182713
271 1 0.151943 0.735806 0.171004
136 1 0.130541 0.542879 0.0750374
416 2 0.184101 0.661695 0.00671084
391 2 0.00782484 0.640348 0.0372639
40 1 0.309676 0.556717 0.0239188
61 1 0.401338 0.612108 0.063263
162 1 0.322035 0.54062 0.192168
291 1 0.345656 0.656907 0.158599
295 1 0.345968 0.72229 0.0156823
442 2 0.458242 0.630782 0.221374
187 1 0.446079 0.527513 0.144485
41 1 0.256262 0.717041 0.108452
70 1 0.425835 0.74925 0.113778
86 1 0.67258 0.535694 0.166356
90 1 0.640114 0.545111 0.0446176
316 1 0.53327 0.696267 0.14938
320 1 0.532579 0.599055 0.0775107
467 2 0.637954 0.652958 0.193475
341 1 0.744496 0.675282 0.113569
466 2 0.660348 0.663437 0.0132965
366 1 0.877429 0.623819 0.132164
15 1 0.949629 0.53487 0.0795594
212 1 0.781741 0.568898 0.202262
345 1 0.770874 0.552028 0.0749766
392 2 0.985613 0.686218 0.207217
492 2 0.808568 0.704932 0.240453
20 1 0.916749 0.72886 0.0706348
491 2 0.832301 0.654435 0.00205211
46 1 0.19336 0.994605 0.0907456
147 1 0.131977 0.980328 0.204425
251 1 0.170226 0.869348 0.192405
375 1 0.0999101 0.907936 0.0928939
397 2 0.0663404 0.834561 0.244951
141 1 0.100067 0.779813 0.0739599
421 2 0.228554 0.831348 0.0495627
71 1 0.44089 0.899146 0.152457
66 1 0.333851 0.810935 0.161481
280 1 0.354848 0.96938 0.099463
296 1 0.268782 0.911753 0.148789
300 1 0.378637 0.852432 0.0429425
96 1 0.628963 0.895173 0.131732
91 1 0.682333 0.779413 0.143675
95 1 0.591063 0.751997 0.0542165
192 1 0.525841 0.774754 0.246932
305 1 0.532402 0.956642 0.0891093
321 1 0.554341 0.906921 0.23179
325 1 0.528037 0.821937 0.127006
330 1 0.734969 0.951989 0.0667662
471 2 0.698217 0.844145 0.0209195
351 1 0.996438 0.920478 0.168851
371 1 0.981781 0.885869 0.0446088
16 1 0.994418 0.79191 0.136225
116 1 0.908091 0.836081 0.214158
120 1 0.818787 0.784208 0.138694
346 1 0.868983 0.945616 0.178405
350 1 0.756013 0.889455 0.183994
216 1 0.807848 0.789325 0.0182565
496 2 0.86012 0.897964 0.060054
407 2 0.206899 0.213863 0.283676
377 2 0.0166704 0.0206673 0.257126
128 1 0.228655 0.212534 0.494704
248 1 0.144096 0.132973 0.451376
2 1 0.0948093 0.175858 0.3409
383 2 0.0107702 0.228924 0.474396
252 1 0.174979 0.0812165 0.335044
378 2 0.0567972 0.0386734 0.432264
172 1 0.350939 0.0711193 0.330656
27 1 0.268701 0.133497 0.409048
52 1 0.477732 0.0831924 0.332269
153 1 0.36106 0.111484 0.485902
282 1 0.325715 0.198796 0.329817
433 2 0.434726 0.188479 0.402995
403 2 0.252201 0.0109656 0.433666
428 2 0.445699 0.0105965 0.449758
177 1 0.57924 0.11287 0.262775
202 1 0.727158 0.119695 0.260766
77 1 0.624415 0.160011 0.365148
97 1 0.700143 0.0534303 0.360646
178 1 0.575111 0.0619925 0.414997
307 1 0.523161 0.245075 0.335998
458 2 0.591606 0.249101 0.462545
223 1 0.726428 0.142592 0.446511
332 1 0.740533 0.221924 0.358755
308 1 0.521212 0.140937 0.492454
477 2 0.840899 0.0489661 0.251514
228 1 0.915285 0.150031 0.455557
22 1 0.9887 0.126792 0.366291
102 1 0.911393 0.188712 0.306254
122 1 0.931629 0.0242055 0.349239
203 1 0.825739 0.098552 0.379612
382 2 0.0250256 0.259498 0.282962
232 1 0.0920219 0.371193 0.287947
257 1 0.132409 0.260689 0.421765
357 1 0.0290965 0.33825 0.393444
32 1 0.189309 0.326006 0.340451
133 1 0.119222 0.367726 0.483247
262 1 0.103826 0.48684 0.31751
413 2 0.194807 0.439456 0.400743
388 2 0.0196904 0.470316 0.424418
437 2 0.407787 0.455496 0.257467
408 2 0.297877 0.2988 0.399662
57 1 0.437539 0.342653 0.333463
158 1 0.379666 0.389731 0.424247
287 1 0.312379 0.445931 0.341743
438 2 0.476927 0.478437 0.427146
58 1 0.458533 0.312007 0.483333
288 1 0.305479 0.456368 0.4972
457 2 0.639204 0.269299 0.280837
82 1 0.646455 0.389924 0.328742
183 1 0.541628 0.358037 0.397469
312 1 0.537966 0.458617 0.300926
463 2 0.653504 0.431375 0.447061
208 1 0.711208 0.307996 0.447243
106 1 0.903707 0.319215 0.25726
487 2 0.799071 0.462978 0.279984
483 2 0.857007 0.253684 0.409794
233 1 0.948848 0.372892 0.491993
362 1 0.914805 0.493616 0.342979
7 1 0.906695 0.363513 0.366181
107 1 0.773092 0.353263 0.343915
488 2 0.831672 0.444159 0.454774
237 1 0.0275086 0.583961 0.301578
142 1 0.101669 0.68671 0.288895
37 1 0.229015 0.506545 0.263928
138 1 0.0681828 0.599717 0.420678
267 1 0.167205 0.588841 0.353208
418 2 0.234884 0.597418 0.477153
42 1 0.204383 0.709021 0.36636
243 1 0.108207 0.710628 0.453416
38 1 0.133818 0.511294 0.492774
417 2 0.297535 0.616661 0.30904
167 1 0.351785 0.716553 0.261032
62 1 0.430422 0.565184 0.338879
163 1 0.327795 0.541207 0.408875
292 1 0.392922 0.650797 0.428371
67 1 0.481358 0.696003 0.341035
168 1 0.285475 0.719668 0.45655
443 2 0.510944 0.640765 0.489919
87 1 0.657061 0.518764 0.305334
188 1 0.57858 0.556672 0.425302
317 1 0.553715 0.586305 0.31473
468 2 0.67399 0.637808 0.43363
213 1 0.743603 0.515789 0.397142
342 1 0.724615 0.62046 0.302119
92 1 0.613695 0.696334 0.308584
193 1 0.573926 0.732053 0.418417
218 1 0.734034 0.738334 0.355257
111 1 0.899883 0.596053 0.268042
242 1 0.914522 0.743642 0.30438
238 1 0.917372 0.556625 0.461889
12 1 0.95484 0.649018 0.383743
112 1 0.829109 0.597527 0.372361
117 1 0.839214 0.716126 0.408883
422 2 0.237754 0.77162 0.256349
148 1 0.172276 0.916884 0.434192
367 1 0.0289734 0.755715 0.35566
143 1 0.137672 0.811684 0.394684
272 1 0.212186 0.887374 0.309286
352 1 0.118518 0.974776 0.334116
372 1 0.0462809 0.886519 0.358901
398 2 0.0146367 0.879957 0.484471
447 2 0.410462 0.837244 0.270302
47 1 0.350603 0.954477 0.37011
72 1 0.475996 0.939723 0.329111
173 1 0.377997 0.907144 0.493201
423 2 0.288345 0.842704 0.407954
277 1 0.312319 0.93032 0.259287
297 1 0.381299 0.759594 0.370669
448 2 0.460949 0.825717 0.447469
197 1 0.592885 0.996761 0.310631
472 2 0.664786 0.820654 0.270909
198 1 0.56283 0.929242 0.44407
302 1 0.665778 0.914087 0.373645
322 1 0.553255 0.840445 0.35257
453 2 0.723779 0.987576 0.47807
473 2 0.67572 0.814031 0.460179
222 1 0.757551 0.95687 0.30118
217 1 0.804174 0.837746 0.290088
497 2 0.922798 0.899887 0.332694
17 1 0.926493 0.802926 0.424765
327 1 0.827084 0.963387 0.397717
347 1 0.791994 0.846698 0.411479
478 2 0.899168 0.987395 0.49883
129 1 0.192986 0.182682 0.642765
249 1 0.114637 0.0870555 0.648524
3 1 0.078337 0.151847 0.551047
384 2 0.0147249 0.202009 0.651562
253 1 0.177763 0.0514893 0.539235
379 2 0.0242614 0.00251185 0.610793
259 1 0.130765 0.249486 0.729468
28 1 0.266854 0.120262 0.567914
53 1 0.376545 0.0450063 0.590042
154 1 0.356971 0.154552 0.645853
174 1 0.355277 0.00618582 0.703104
283 1 0.350293 0.235372 0.515152
434 2 0.459259 0.202321 0.585417
199 1 0.49897 0.0416564 0.567341
29 1 0.272945 0.0996921 0.708983
74 1 0.439899 0.0956265 0.719867
284 1 0.353896 0.235397 0.745132
309 1 0.479794 0.216177 0.728312
78 1 0.639764 0.129759 0.531542
98 1 0.609024 0.0145955 0.522523
179 1 0.538719 0.119071 0.649731
459 2 0.633533 0.201246 0.644808
204 1 0.724878 0.149297 0.714936
224 1 0.742732 0.0935954 0.610601
333 1 0.739339 0.220531 0.540751
454 2 0.65402 0.00865258 0.636888
99 1 0.589982 0.0484929 0.730896
229 1 0.910972 0.11918 0.613078
23 1 0.977398 0.0783006 0.527169
103 1 0.860831 0.208867 0.550529
123 1 0.813714 0.0893444 0.51585
484 2 0.825068 0.212589 0.676571
479 2 0.826343 0.020649 0.669724
24 1 0.940218 0.0690535 0.718775
258 1 0.13253 0.259211 0.564388
33 1 0.237248 0.335811 0.521005
134 1 0.151159 0.344291 0.651123
234 1 0.0307693 0.329511 0.701795
263 1 0.045258 0.3619 0.579116
414 2 0.199472 0.449239 0.586287
239 1 0.0389308 0.48339 0.569166
34 1 0.239577 0.347837 0.743606
364 1 0.0954251 0.436362 0.72167
39 1 0.222374 0.467296 0.719836
409 2 0.283123 0.27655 0.639735
159 1 0.365589 0.36186 0.5547
439 2 0.450169 0.460663 0.597367
59 1 0.420375 0.31748 0.667548
289 1 0.325304 0.416835 0.666663
83 1 0.646359 0.308369 0.567212
184 1 0.526105 0.314242 0.594635
313 1 0.540544 0.411367 0.523997
464 2 0.63073 0.432771 0.629366
338 1 0.734066 0.413916 0.55258
84 1 0.574422 0.292985 0.708414
314 1 0.51585 0.400987 0.702456
339 1 0.678572 0.354341 0.72935
358 1 0.948524 0.286654 0.576591
363 1 0.910736 0.472844 0.562321
8 1 0.871945 0.3658 0.628305
108 1 0.819511 0.324844 0.519061
209 1 0.752155 0.315676 0.635715
389 2 0.963825 0.454025 0.681956
359 1 0.91727 0.29836 0.721489
109 1 0.79189 0.408756 0.715964
139 1 0.114976 0.534009 0.64982
268 1 0.130699 0.629449 0.548569
368 1 0.00845949 0.596246 0.53683
419 2 0.215403 0.632258 0.652641
394 2 0.0225388 0.632342 0.664718
43 1 0.196707 0.749247 0.533928
244 1 0.118423 0.724787 0.641594
63 1 0.402352 0.545838 0.513346
164 1 0.303052 0.533787 0.607024
293 1 0.337934 0.646279 0.553456
444 2 0.41342 0.629182 0.652984
68 1 0.420207 0.731844 0.532609
169 1 0.295006 0.730506 0.632988
194 1 0.49821 0.705074 0.701292
64 1 0.395439 0.5131 0.7138
294 1 0.28581 0.56495 0.748614
69 1 0.334859 0.679131 0.749455
88 1 0.60454 0.528901 0.538878
189 1 0.527577 0.56497 0.6256
318 1 0.567927 0.675633 0.60066
469 2 0.678456 0.698198 0.72195
113 1 0.733124 0.548224 0.521206
214 1 0.678249 0.618702 0.604036
343 1 0.71415 0.709698 0.5336
89 1 0.635241 0.541456 0.693668
190 1 0.516931 0.5161 0.741186
114 1 0.747158 0.582519 0.715541
393 2 0.983872 0.712158 0.503583
493 2 0.823953 0.641523 0.519474
489 2 0.795039 0.50369 0.627231
13 1 0.906076 0.585148 0.613008
494 2 0.84405 0.664735 0.697191
118 1 0.895722 0.724485 0.590701
14 1 0.936584 0.570294 0.749704
19 1 0.987358 0.730675 0.739583
149 1 0.140008 0.884496 0.603519
273 1 0.226794 0.866294 0.53104
353 1 0.102304 0.95923 0.518602
373 1 0.0739292 0.794413 0.552362
404 2 0.205865 0.987769 0.65449
424 2 0.210027 0.811599 0.685918
354 1 0.0699444 0.909491 0.693374
48 1 0.29312 0.968065 0.554212
73 1 0.452066 0.92437 0.586452
278 1 0.339353 0.889507 0.644165
298 1 0.331549 0.808451 0.553494
429 2 0.484879 0.965649 0.698172
449 2 0.472437 0.803581 0.627472
49 1 0.266192 0.922722 0.746223
299 1 0.382434 0.787308 0.718662
93 1 0.64389 0.772626 0.619377
303 1 0.572312 0.90446 0.567085
323 1 0.562686 0.789119 0.533606
474 2 0.638413 0.873273 0.706305
348 1 0.703072 0.88234 0.578447
498 2 0.845666 0.825082 0.525815
18 1 0.910136 0.912278 0.646112
219 1 0.771868 0.76679 0.623846
328 1 0.815821 0.931966 0.572937
399 2 0.98874 0.812228 0.644239
499 2 0.82388 0.841478 0.708569
329 1 0.75209 0.946335 0.74834
30 1 0.24159 0.0939568 0.935515
126 1 0.150937 0.152082 0.880927
130 1 0.167298 0.128541 0.762361
146 1 0.134846 0.0183359 0.935674
246 1 0.082943 0.128315 0.979567
250 1 0.0473247 0.0627185 0.860518
410 2 0.242115 0.23328 0.818432
4 1 0.0419615 0.118408 0.752339
385 2 0.0491489 0.22845 0.837159
254 1 0.108032 0.00893638 0.75624
405 2 0.2484 0.0354592 0.82821
55 1 0.452266 0.165121 0.881892
54 1 0.361105 0.129123 0.802217
155 1 0.326355 0.185724 0.908663
171 1 0.377261 0.0716314 0.93828
175 1 0.380797 0.00763022 0.835855