LAMMPS data file. CGCMM style. atom_style full generated by VMD/TopoTools v1.5 on Thu Dec 18 14:06:01 MSK 2025
 500 atoms
 0 bonds
 0 angles
 0 dihedrals
 0 impropers
 2 atom types
 0 bond types
 0 angle types
 0 dihedral types
 0 improper types
 0.890000 15.490000  xlo xhi
 0.890000 15.490000  ylo yhi
 0.890000 15.490000  zlo zhi

# Pair Coeffs
#
# 1  Co
# 2  Ta

 Masses

 1 58.933201 # Co
 2 180.947906 # Ta

 Atoms

1 1 1 0.000000 0.000000 1.820000 1.820000 # Co 
2 1 1 0.000000 0.000000 1.820000 5.460000 # Co 
3 1 1 0.000000 0.000000 1.820000 9.100000 # Co 
4 1 1 0.000000 0.000000 1.820000 12.740000 # Co 
5 1 1 0.000000 0.000000 1.820000 16.379999 # Co 
6 1 1 0.000000 0.000000 5.460000 1.820000 # Co 
7 1 1 0.000000 0.000000 5.460000 5.460000 # Co 
8 1 1 0.000000 0.000000 5.460000 9.100000 # Co 
9 1 1 0.000000 0.000000 5.460000 12.740000 # Co 
10 1 1 0.000000 0.000000 5.460000 16.379999 # Co 
11 1 1 0.000000 0.000000 9.100000 1.820000 # Co 
12 1 1 0.000000 0.000000 9.100000 5.460000 # Co 
13 1 1 0.000000 0.000000 9.100000 9.100000 # Co 
14 1 1 0.000000 0.000000 9.100000 12.740000 # Co 
15 1 1 0.000000 0.000000 9.100000 16.379999 # Co 
16 1 1 0.000000 0.000000 12.740000 1.820000 # Co 
17 1 1 0.000000 0.000000 12.740000 5.460000 # Co 
18 1 1 0.000000 0.000000 12.740000 9.100000 # Co 
19 1 1 0.000000 0.000000 12.740000 12.740000 # Co 
20 1 1 0.000000 0.000000 12.740000 16.379999 # Co 
21 1 1 0.000000 0.000000 16.379999 1.820000 # Co 
22 1 1 0.000000 0.000000 16.379999 5.460000 # Co 
23 1 1 0.000000 0.000000 16.379999 9.100000 # Co 
24 1 1 0.000000 0.000000 16.379999 12.740000 # Co 
25 1 1 0.000000 0.000000 16.379999 16.379999 # Co 
26 1 1 0.000000 3.640000 1.820000 1.820000 # Co 
27 1 1 0.000000 3.640000 1.820000 5.460000 # Co 
28 1 1 0.000000 3.640000 1.820000 9.100000 # Co 
29 1 1 0.000000 3.640000 1.820000 12.740000 # Co 
30 1 1 0.000000 3.640000 1.820000 16.379999 # Co 
31 1 1 0.000000 3.640000 5.460000 1.820000 # Co 
32 1 1 0.000000 3.640000 5.460000 5.460000 # Co 
33 1 1 0.000000 3.640000 5.460000 9.100000 # Co 
34 1 1 0.000000 3.640000 5.460000 12.740000 # Co 
35 1 1 0.000000 3.640000 5.460000 16.379999 # Co 
36 1 1 0.000000 3.640000 9.100000 1.820000 # Co 
37 1 1 0.000000 3.640000 9.100000 5.460000 # Co 
38 1 1 0.000000 3.640000 9.100000 9.100000 # Co 
39 1 1 0.000000 3.640000 9.100000 12.740000 # Co 
40 1 1 0.000000 3.640000 9.100000 16.379999 # Co 
41 1 1 0.000000 3.640000 12.740000 1.820000 # Co 
42 1 1 0.000000 3.640000 12.740000 5.460000 # Co 
43 1 1 0.000000 3.640000 12.740000 9.100000 # Co 
44 1 1 0.000000 3.640000 12.740000 12.740000 # Co 
45 1 1 0.000000 3.640000 12.740000 16.379999 # Co 
46 1 1 0.000000 3.640000 16.379999 1.820000 # Co 
47 1 1 0.000000 3.640000 16.379999 5.460000 # Co 
48 1 1 0.000000 3.640000 16.379999 9.100000 # Co 
49 1 1 0.000000 3.640000 16.379999 12.740000 # Co 
50 1 1 0.000000 3.640000 16.379999 16.379999 # Co 
51 1 1 0.000000 7.280000 1.820000 1.820000 # Co 
52 1 1 0.000000 7.280000 1.820000 5.460000 # Co 
53 1 1 0.000000 7.280000 1.820000 9.100000 # Co 
54 1 1 0.000000 7.280000 1.820000 12.740000 # Co 
55 1 1 0.000000 7.280000 1.820000 16.379999 # Co 
56 1 1 0.000000 7.280000 5.460000 1.820000 # Co 
57 1 1 0.000000 7.280000 5.460000 5.460000 # Co 
58 1 1 0.000000 7.280000 5.460000 9.100000 # Co 
59 1 1 0.000000 7.280000 5.460000 12.740000 # Co 
60 1 1 0.000000 7.280000 5.460000 16.379999 # Co 
61 1 1 0.000000 7.280000 9.100000 1.820000 # Co 
62 1 1 0.000000 7.280000 9.100000 5.460000 # Co 
63 1 1 0.000000 7.280000 9.100000 9.100000 # Co 
64 1 1 0.000000 7.280000 9.100000 12.740000 # Co 
65 1 1 0.000000 7.280000 9.100000 16.379999 # Co 
66 1 1 0.000000 7.280000 12.740000 1.820000 # Co 
67 1 1 0.000000 7.280000 12.740000 5.460000 # Co 
68 1 1 0.000000 7.280000 12.740000 9.100000 # Co 
69 1 1 0.000000 7.280000 12.740000 12.740000 # Co 
70 1 1 0.000000 7.280000 12.740000 16.379999 # Co 
71 1 1 0.000000 7.280000 16.379999 1.820000 # Co 
72 1 1 0.000000 7.280000 16.379999 5.460000 # Co 
73 1 1 0.000000 7.280000 16.379999 9.100000 # Co 
74 1 1 0.000000 7.280000 16.379999 12.740000 # Co 
75 1 1 0.000000 7.280000 16.379999 16.379999 # Co 
76 1 1 0.000000 10.920000 1.820000 1.820000 # Co 
77 1 1 0.000000 10.920000 1.820000 5.460000 # Co 
78 1 1 0.000000 10.920000 1.820000 9.100000 # Co 
79 1 1 0.000000 10.920000 1.820000 12.740000 # Co 
80 1 1 0.000000 10.920000 1.820000 16.379999 # Co 
81 1 1 0.000000 10.920000 5.460000 1.820000 # Co 
82 1 1 0.000000 10.920000 5.460000 5.460000 # Co 
83 1 1 0.000000 10.920000 5.460000 9.100000 # Co 
84 1 1 0.000000 10.920000 5.460000 12.740000 # Co 
85 1 1 0.000000 10.920000 5.460000 16.379999 # Co 
86 1 1 0.000000 10.920000 9.100000 1.820000 # Co 
87 1 1 0.000000 10.920000 9.100000 5.460000 # Co 
88 1 1 0.000000 10.920000 9.100000 9.100000 # Co 
89 1 1 0.000000 10.920000 9.100000 12.740000 # Co 
90 1 1 0.000000 10.920000 9.100000 16.379999 # Co 
91 1 1 0.000000 10.920000 12.740000 1.820000 # Co 
92 1 1 0.000000 10.920000 12.740000 5.460000 # Co 
93 1 1 0.000000 10.920000 12.740000 9.100000 # Co 
94 1 1 0.000000 10.920000 12.740000 12.740000 # Co 
95 1 1 0.000000 10.920000 12.740000 16.379999 # Co 
96 1 1 0.000000 10.920000 16.379999 1.820000 # Co 
97 1 1 0.000000 10.920000 16.379999 5.460000 # Co 
98 1 1 0.000000 10.920000 16.379999 9.100000 # Co 
99 1 1 0.000000 10.920000 16.379999 12.740000 # Co 
100 1 1 0.000000 10.920000 16.379999 16.379999 # Co 
101 1 1 0.000000 14.560000 1.820000 1.820000 # Co 
102 1 1 0.000000 14.560000 1.820000 5.460000 # Co 
103 1 1 0.000000 14.560000 1.820000 9.100000 # Co 
104 1 1 0.000000 14.560000 1.820000 12.740000 # Co 
105 1 1 0.000000 14.560000 1.820000 16.379999 # Co 
106 1 1 0.000000 14.560000 5.460000 1.820000 # Co 
107 1 1 0.000000 14.560000 5.460000 5.460000 # Co 
108 1 1 0.000000 14.560000 5.460000 9.100000 # Co 
109 1 1 0.000000 14.560000 5.460000 12.740000 # Co 
110 1 1 0.000000 14.560000 5.460000 16.379999 # Co 
111 1 1 0.000000 14.560000 9.100000 1.820000 # Co 
112 1 1 0.000000 14.560000 9.100000 5.460000 # Co 
113 1 1 0.000000 14.560000 9.100000 9.100000 # Co 
114 1 1 0.000000 14.560000 9.100000 12.740000 # Co 
115 1 1 0.000000 14.560000 9.100000 16.379999 # Co 
116 1 1 0.000000 14.560000 12.740000 1.820000 # Co 
117 1 1 0.000000 14.560000 12.740000 5.460000 # Co 
118 1 1 0.000000 14.560000 12.740000 9.100000 # Co 
119 1 1 0.000000 14.560000 12.740000 12.740000 # Co 
120 1 1 0.000000 14.560000 12.740000 16.379999 # Co 
121 1 1 0.000000 14.560000 16.379999 1.820000 # Co 
122 1 1 0.000000 14.560000 16.379999 5.460000 # Co 
123 1 1 0.000000 14.560000 16.379999 9.100000 # Co 
124 1 1 0.000000 14.560000 16.379999 12.740000 # Co 
125 1 1 0.000000 14.560000 16.379999 16.379999 # Co 
126 1 1 0.000000 1.820000 1.820000 0.000000 # Co 
127 1 1 0.000000 1.820000 1.820000 3.640000 # Co 
128 1 1 0.000000 1.820000 1.820000 7.280000 # Co 
129 1 1 0.000000 1.820000 1.820000 10.920000 # Co 
130 1 1 0.000000 1.820000 1.820000 14.560000 # Co 
131 1 1 0.000000 1.820000 5.460000 0.000000 # Co 
132 1 1 0.000000 1.820000 5.460000 3.640000 # Co 
133 1 1 0.000000 1.820000 5.460000 7.280000 # Co 
134 1 1 0.000000 1.820000 5.460000 10.920000 # Co 
135 1 1 0.000000 1.820000 5.460000 14.560000 # Co 
136 1 1 0.000000 1.820000 9.100000 0.000000 # Co 
137 1 1 0.000000 1.820000 9.100000 3.640000 # Co 
138 1 1 0.000000 1.820000 9.100000 7.280000 # Co 
139 1 1 0.000000 1.820000 9.100000 10.920000 # Co 
140 1 1 0.000000 1.820000 9.100000 14.560000 # Co 
141 1 1 0.000000 1.820000 12.740000 0.000000 # Co 
142 1 1 0.000000 1.820000 12.740000 3.640000 # Co 
143 1 1 0.000000 1.820000 12.740000 7.280000 # Co 
144 1 1 0.000000 1.820000 12.740000 10.920000 # Co 
145 1 1 0.000000 1.820000 12.740000 14.560000 # Co 
146 1 1 0.000000 1.820000 16.379999 0.000000 # Co 
147 1 1 0.000000 1.820000 16.379999 3.640000 # Co 
148 1 1 0.000000 1.820000 16.379999 7.280000 # Co 
149 1 1 0.000000 1.820000 16.379999 10.920000 # Co 
150 1 1 0.000000 1.820000 16.379999 14.560000 # Co 
151 1 1 0.000000 5.460000 1.820000 0.000000 # Co 
152 1 1 0.000000 5.460000 1.820000 3.640000 # Co 
153 1 1 0.000000 5.460000 1.820000 7.280000 # Co 
154 1 1 0.000000 5.460000 1.820000 10.920000 # Co 
155 1 1 0.000000 5.460000 1.820000 14.560000 # Co 
156 1 1 0.000000 5.460000 5.460000 0.000000 # Co 
157 1 1 0.000000 5.460000 5.460000 3.640000 # Co 
158 1 1 0.000000 5.460000 5.460000 7.280000 # Co 
159 1 1 0.000000 5.460000 5.460000 10.920000 # Co 
160 1 1 0.000000 5.460000 5.460000 14.560000 # Co 
161 1 1 0.000000 5.460000 9.100000 0.000000 # Co 
162 1 1 0.000000 5.460000 9.100000 3.640000 # Co 
163 1 1 0.000000 5.460000 9.100000 7.280000 # Co 
164 1 1 0.000000 5.460000 9.100000 10.920000 # Co 
165 1 1 0.000000 5.460000 9.100000 14.560000 # Co 
166 1 1 0.000000 5.460000 12.740000 0.000000 # Co 
167 1 1 0.000000 5.460000 12.740000 3.640000 # Co 
168 1 1 0.000000 5.460000 12.740000 7.280000 # Co 
169 1 1 0.000000 5.460000 12.740000 10.920000 # Co 
170 1 1 0.000000 5.460000 12.740000 14.560000 # Co 
171 1 1 0.000000 5.460000 16.379999 0.000000 # Co 
172 1 1 0.000000 5.460000 16.379999 3.640000 # Co 
173 1 1 0.000000 5.460000 16.379999 7.280000 # Co 
174 1 1 0.000000 5.460000 16.379999 10.920000 # Co 
175 1 1 0.000000 5.460000 16.379999 14.560000 # Co 
176 1 1 0.000000 9.100000 1.820000 0.000000 # Co 
177 1 1 0.000000 9.100000 1.820000 3.640000 # Co 
178 1 1 0.000000 9.100000 1.820000 7.280000 # Co 
179 1 1 0.000000 9.100000 1.820000 10.920000 # Co 
180 1 1 0.000000 9.100000 1.820000 14.560000 # Co 
181 1 1 0.000000 9.100000 5.460000 0.000000 # Co 
182 1 1 0.000000 9.100000 5.460000 3.640000 # Co 
183 1 1 0.000000 9.100000 5.460000 7.280000 # Co 
184 1 1 0.000000 9.100000 5.460000 10.920000 # Co 
185 1 1 0.000000 9.100000 5.460000 14.560000 # Co 
186 1 1 0.000000 9.100000 9.100000 0.000000 # Co 
187 1 1 0.000000 9.100000 9.100000 3.640000 # Co 
188 1 1 0.000000 9.100000 9.100000 7.280000 # Co 
189 1 1 0.000000 9.100000 9.100000 10.920000 # Co 
190 1 1 0.000000 9.100000 9.100000 14.560000 # Co 
191 1 1 0.000000 9.100000 12.740000 0.000000 # Co 
192 1 1 0.000000 9.100000 12.740000 3.640000 # Co 
193 1 1 0.000000 9.100000 12.740000 7.280000 # Co 
194 1 1 0.000000 9.100000 12.740000 10.920000 # Co 
195 1 1 0.000000 9.100000 12.740000 14.560000 # Co 
196 1 1 0.000000 9.100000 16.379999 0.000000 # Co 
197 1 1 0.000000 9.100000 16.379999 3.640000 # Co 
198 1 1 0.000000 9.100000 16.379999 7.280000 # Co 
199 1 1 0.000000 9.100000 16.379999 10.920000 # Co 
200 1 1 0.000000 9.100000 16.379999 14.560000 # Co 
201 1 1 0.000000 12.740000 1.820000 0.000000 # Co 
202 1 1 0.000000 12.740000 1.820000 3.640000 # Co 
203 1 1 0.000000 12.740000 1.820000 7.280000 # Co 
204 1 1 0.000000 12.740000 1.820000 10.920000 # Co 
205 1 1 0.000000 12.740000 1.820000 14.560000 # Co 
206 1 1 0.000000 12.740000 5.460000 0.000000 # Co 
207 1 1 0.000000 12.740000 5.460000 3.640000 # Co 
208 1 1 0.000000 12.740000 5.460000 7.280000 # Co 
209 1 1 0.000000 12.740000 5.460000 10.920000 # Co 
210 1 1 0.000000 12.740000 5.460000 14.560000 # Co 
211 1 1 0.000000 12.740000 9.100000 0.000000 # Co 
212 1 1 0.000000 12.740000 9.100000 3.640000 # Co 
213 1 1 0.000000 12.740000 9.100000 7.280000 # Co 
214 1 1 0.000000 12.740000 9.100000 10.920000 # Co 
215 1 1 0.000000 12.740000 9.100000 14.560000 # Co 
216 1 1 0.000000 12.740000 12.740000 0.000000 # Co 
217 1 1 0.000000 12.740000 12.740000 3.640000 # Co 
218 1 1 0.000000 12.740000 12.740000 7.280000 # Co 
219 1 1 0.000000 12.740000 12.740000 10.920000 # Co 
220 1 1 0.000000 12.740000 12.740000 14.560000 # Co 
221 1 1 0.000000 12.740000 16.379999 0.000000 # Co 
222 1 1 0.000000 12.740000 16.379999 3.640000 # Co 
223 1 1 0.000000 12.740000 16.379999 7.280000 # Co 
224 1 1 0.000000 12.740000 16.379999 10.920000 # Co 
225 1 1 0.000000 12.740000 16.379999 14.560000 # Co 
226 1 1 0.000000 16.379999 1.820000 0.000000 # Co 
227 1 1 0.000000 16.379999 1.820000 3.640000 # Co 
228 1 1 0.000000 16.379999 1.820000 7.280000 # Co 
229 1 1 0.000000 16.379999 1.820000 10.920000 # Co 
230 1 1 0.000000 16.379999 1.820000 14.560000 # Co 
231 1 1 0.000000 16.379999 5.460000 0.000000 # Co 
232 1 1 0.000000 16.379999 5.460000 3.640000 # Co 
233 1 1 0.000000 16.379999 5.460000 7.280000 # Co 
234 1 1 0.000000 16.379999 5.460000 10.920000 # Co 
235 1 1 0.000000 16.379999 5.460000 14.560000 # Co 
236 1 1 0.000000 16.379999 9.100000 0.000000 # Co 
237 1 1 0.000000 16.379999 9.100000 3.640000 # Co 
238 1 1 0.000000 16.379999 9.100000 7.280000 # Co 
239 1 1 0.000000 16.379999 9.100000 10.920000 # Co 
240 1 1 0.000000 16.379999 9.100000 14.560000 # Co 
241 1 1 0.000000 16.379999 12.740000 0.000000 # Co 
242 1 1 0.000000 16.379999 12.740000 3.640000 # Co 
243 1 1 0.000000 16.379999 12.740000 7.280000 # Co 
244 1 1 0.000000 16.379999 12.740000 10.920000 # Co 
245 1 1 0.000000 16.379999 12.740000 14.560000 # Co 
246 1 1 0.000000 16.379999 16.379999 0.000000 # Co 
247 1 1 0.000000 16.379999 16.379999 3.640000 # Co 
248 1 1 0.000000 16.379999 16.379999 7.280000 # Co 
249 1 1 0.000000 16.379999 16.379999 10.920000 # Co 
250 1 1 0.000000 16.379999 16.379999 14.560000 # Co 
251 1 1 0.000000 1.820000 0.000000 1.820000 # Co 
252 1 1 0.000000 1.820000 0.000000 5.460000 # Co 
253 1 1 0.000000 1.820000 0.000000 9.100000 # Co 
254 1 1 0.000000 1.820000 0.000000 12.740000 # Co 
255 1 1 0.000000 1.820000 0.000000 16.379999 # Co 
256 1 1 0.000000 1.820000 3.640000 1.820000 # Co 
257 1 1 0.000000 1.820000 3.640000 5.460000 # Co 
258 1 1 0.000000 1.820000 3.640000 9.100000 # Co 
259 1 1 0.000000 1.820000 3.640000 12.740000 # Co 
260 1 1 0.000000 1.820000 3.640000 16.379999 # Co 
261 1 1 0.000000 1.820000 7.280000 1.820000 # Co 
262 1 1 0.000000 1.820000 7.280000 5.460000 # Co 
263 1 1 0.000000 1.820000 7.280000 9.100000 # Co 
264 1 1 0.000000 1.820000 7.280000 12.740000 # Co 
265 1 1 0.000000 1.820000 7.280000 16.379999 # Co 
266 1 1 0.000000 1.820000 10.920000 1.820000 # Co 
267 1 1 0.000000 1.820000 10.920000 5.460000 # Co 
268 1 1 0.000000 1.820000 10.920000 9.100000 # Co 
269 1 1 0.000000 1.820000 10.920000 12.740000 # Co 
270 1 1 0.000000 1.820000 10.920000 16.379999 # Co 
271 1 1 0.000000 1.820000 14.560000 1.820000 # Co 
272 1 1 0.000000 1.820000 14.560000 5.460000 # Co 
273 1 1 0.000000 1.820000 14.560000 9.100000 # Co 
274 1 1 0.000000 1.820000 14.560000 12.740000 # Co 
275 1 1 0.000000 1.820000 14.560000 16.379999 # Co 
276 1 1 0.000000 5.460000 0.000000 1.820000 # Co 
277 1 1 0.000000 5.460000 0.000000 5.460000 # Co 
278 1 1 0.000000 5.460000 0.000000 9.100000 # Co 
279 1 1 0.000000 5.460000 0.000000 12.740000 # Co 
280 1 1 0.000000 5.460000 0.000000 16.379999 # Co 
281 1 1 0.000000 5.460000 3.640000 1.820000 # Co 
282 1 1 0.000000 5.460000 3.640000 5.460000 # Co 
283 1 1 0.000000 5.460000 3.640000 9.100000 # Co 
284 1 1 0.000000 5.460000 3.640000 12.740000 # Co 
285 1 1 0.000000 5.460000 3.640000 16.379999 # Co 
286 1 1 0.000000 5.460000 7.280000 1.820000 # Co 
287 1 1 0.000000 5.460000 7.280000 5.460000 # Co 
288 1 1 0.000000 5.460000 7.280000 9.100000 # Co 
289 1 1 0.000000 5.460000 7.280000 12.740000 # Co 
290 1 1 0.000000 5.460000 7.280000 16.379999 # Co 
291 1 1 0.000000 5.460000 10.920000 1.820000 # Co 
292 1 1 0.000000 5.460000 10.920000 5.460000 # Co 
293 1 1 0.000000 5.460000 10.920000 9.100000 # Co 
294 1 1 0.000000 5.460000 10.920000 12.740000 # Co 
295 1 1 0.000000 5.460000 10.920000 16.379999 # Co 
296 1 1 0.000000 5.460000 14.560000 1.820000 # Co 
297 1 1 0.000000 5.460000 14.560000 5.460000 # Co 
298 1 1 0.000000 5.460000 14.560000 9.100000 # Co 
299 1 1 0.000000 5.460000 14.560000 12.740000 # Co 
300 1 1 0.000000 5.460000 14.560000 16.379999 # Co 
301 1 1 0.000000 9.100000 0.000000 1.820000 # Co 
302 1 1 0.000000 9.100000 0.000000 5.460000 # Co 
303 1 1 0.000000 9.100000 0.000000 9.100000 # Co 
304 1 1 0.000000 9.100000 0.000000 12.740000 # Co 
305 1 1 0.000000 9.100000 0.000000 16.379999 # Co 
306 1 1 0.000000 9.100000 3.640000 1.820000 # Co 
307 1 1 0.000000 9.100000 3.640000 5.460000 # Co 
308 1 1 0.000000 9.100000 3.640000 9.100000 # Co 
309 1 1 0.000000 9.100000 3.640000 12.740000 # Co 
310 1 1 0.000000 9.100000 3.640000 16.379999 # Co 
311 1 1 0.000000 9.100000 7.280000 1.820000 # Co 
312 1 1 0.000000 9.100000 7.280000 5.460000 # Co 
313 1 1 0.000000 9.100000 7.280000 9.100000 # Co 
314 1 1 0.000000 9.100000 7.280000 12.740000 # Co 
315 1 1 0.000000 9.100000 7.280000 16.379999 # Co 
316 1 1 0.000000 9.100000 10.920000 1.820000 # Co 
317 1 1 0.000000 9.100000 10.920000 5.460000 # Co 
318 1 1 0.000000 9.100000 10.920000 9.100000 # Co 
319 1 1 0.000000 9.100000 10.920000 12.740000 # Co 
320 1 1 0.000000 9.100000 10.920000 16.379999 # Co 
321 1 1 0.000000 9.100000 14.560000 1.820000 # Co 
322 1 1 0.000000 9.100000 14.560000 5.460000 # Co 
323 1 1 0.000000 9.100000 14.560000 9.100000 # Co 
324 1 1 0.000000 9.100000 14.560000 12.740000 # Co 
325 1 1 0.000000 9.100000 14.560000 16.379999 # Co 
326 1 1 0.000000 12.740000 0.000000 1.820000 # Co 
327 1 1 0.000000 12.740000 0.000000 5.460000 # Co 
328 1 1 0.000000 12.740000 0.000000 9.100000 # Co 
329 1 1 0.000000 12.740000 0.000000 12.740000 # Co 
330 1 1 0.000000 12.740000 0.000000 16.379999 # Co 
331 1 1 0.000000 12.740000 3.640000 1.820000 # Co 
332 1 1 0.000000 12.740000 3.640000 5.460000 # Co 
333 1 1 0.000000 12.740000 3.640000 9.100000 # Co 
334 1 1 0.000000 12.740000 3.640000 12.740000 # Co 
335 1 1 0.000000 12.740000 3.640000 16.379999 # Co 
336 1 1 0.000000 12.740000 7.280000 1.820000 # Co 
337 1 1 0.000000 12.740000 7.280000 5.460000 # Co 
338 1 1 0.000000 12.740000 7.280000 9.100000 # Co 
339 1 1 0.000000 12.740000 7.280000 12.740000 # Co 
340 1 1 0.000000 12.740000 7.280000 16.379999 # Co 
341 1 1 0.000000 12.740000 10.920000 1.820000 # Co 
342 1 1 0.000000 12.740000 10.920000 5.460000 # Co 
343 1 1 0.000000 12.740000 10.920000 9.100000 # Co 
344 1 1 0.000000 12.740000 10.920000 12.740000 # Co 
345 1 1 0.000000 12.740000 10.920000 16.379999 # Co 
346 1 1 0.000000 12.740000 14.560000 1.820000 # Co 
347 1 1 0.000000 12.740000 14.560000 5.460000 # Co 
348 1 1 0.000000 12.740000 14.560000 9.100000 # Co 
349 1 1 0.000000 12.740000 14.560000 12.740000 # Co 
350 1 1 0.000000 12.740000 14.560000 16.379999 # Co 
351 1 1 0.000000 16.379999 0.000000 1.820000 # Co 
352 1 1 0.000000 16.379999 0.000000 5.460000 # Co 
353 1 1 0.000000 16.379999 0.000000 9.100000 # Co 
354 1 1 0.000000 16.379999 0.000000 12.740000 # Co 
355 1 1 0.000000 16.379999 0.000000 16.379999 # Co 
356 1 1 0.000000 16.379999 3.640000 1.820000 # Co 
357 1 1 0.000000 16.379999 3.640000 5.460000 # Co 
358 1 1 0.000000 16.379999 3.640000 9.100000 # Co 
359 1 1 0.000000 16.379999 3.640000 12.740000 # Co 
360 1 1 0.000000 16.379999 3.640000 16.379999 # Co 
361 1 1 0.000000 16.379999 7.280000 1.820000 # Co 
362 1 1 0.000000 16.379999 7.280000 5.460000 # Co 
363 1 1 0.000000 16.379999 7.280000 9.100000 # Co 
364 1 1 0.000000 16.379999 7.280000 12.740000 # Co 
365 1 1 0.000000 16.379999 7.280000 16.379999 # Co 
366 1 1 0.000000 16.379999 10.920000 1.820000 # Co 
367 1 1 0.000000 16.379999 10.920000 5.460000 # Co 
368 1 1 0.000000 16.379999 10.920000 9.100000 # Co 
369 1 1 0.000000 16.379999 10.920000 12.740000 # Co 
370 1 1 0.000000 16.379999 10.920000 16.379999 # Co 
371 1 1 0.000000 16.379999 14.560000 1.820000 # Co 
372 1 1 0.000000 16.379999 14.560000 5.460000 # Co 
373 1 1 0.000000 16.379999 14.560000 9.100000 # Co 
374 1 1 0.000000 16.379999 14.560000 12.740000 # Co 
375 1 1 0.000000 16.379999 14.560000 16.379999 # Co 
376 1 2 0.000000 0.000000 0.000000 0.000000 # Ta 
377 1 2 0.000000 0.000000 0.000000 3.640000 # Ta 
378 1 2 0.000000 0.000000 0.000000 7.280000 # Ta 
379 1 2 0.000000 0.000000 0.000000 10.920000 # Ta 
380 1 2 0.000000 0.000000 0.000000 14.560000 # Ta 
381 1 2 0.000000 0.000000 3.640000 0.000000 # Ta 
382 1 2 0.000000 0.000000 3.640000 3.640000 # Ta 
383 1 2 0.000000 0.000000 3.640000 7.280000 # Ta 
384 1 2 0.000000 0.000000 3.640000 10.920000 # Ta 
385 1 2 0.000000 0.000000 3.640000 14.560000 # Ta 
386 1 2 0.000000 0.000000 7.280000 0.000000 # Ta 
387 1 2 0.000000 0.000000 7.280000 3.640000 # Ta 
388 1 2 0.000000 0.000000 7.280000 7.280000 # Ta 
389 1 2 0.000000 0.000000 7.280000 10.920000 # Ta 
390 1 2 0.000000 0.000000 7.280000 14.560000 # Ta 
391 1 2 0.000000 0.000000 10.920000 0.000000 # Ta 
392 1 2 0.000000 0.000000 10.920000 3.640000 # Ta 
393 1 2 0.000000 0.000000 10.920000 7.280000 # Ta 
394 1 2 0.000000 0.000000 10.920000 10.920000 # Ta 
395 1 2 0.000000 0.000000 10.920000 14.560000 # Ta 
396 1 2 0.000000 0.000000 14.560000 0.000000 # Ta 
397 1 2 0.000000 0.000000 14.560000 3.640000 # Ta 
398 1 2 0.000000 0.000000 14.560000 7.280000 # Ta 
399 1 2 0.000000 0.000000 14.560000 10.920000 # Ta 
400 1 2 0.000000 0.000000 14.560000 14.560000 # Ta 
401 1 2 0.000000 3.640000 0.000000 0.000000 # Ta 
402 1 2 0.000000 3.640000 0.000000 3.640000 # Ta 
403 1 2 0.000000 3.640000 0.000000 7.280000 # Ta 
404 1 2 0.000000 3.640000 0.000000 10.920000 # Ta 
405 1 2 0.000000 3.640000 0.000000 14.560000 # Ta 
406 1 2 0.000000 3.640000 3.640000 0.000000 # Ta 
407 1 2 0.000000 3.640000 3.640000 3.640000 # Ta 
408 1 2 0.000000 3.640000 3.640000 7.280000 # Ta 
409 1 2 0.000000 3.640000 3.640000 10.920000 # Ta 
410 1 2 0.000000 3.640000 3.640000 14.560000 # Ta 
411 1 2 0.000000 3.640000 7.280000 0.000000 # Ta 
412 1 2 0.000000 3.640000 7.280000 3.640000 # Ta 
413 1 2 0.000000 3.640000 7.280000 7.280000 # Ta 
414 1 2 0.000000 3.640000 7.280000 10.920000 # Ta 
415 1 2 0.000000 3.640000 7.280000 14.560000 # Ta 
416 1 2 0.000000 3.640000 10.920000 0.000000 # Ta 
417 1 2 0.000000 3.640000 10.920000 3.640000 # Ta 
418 1 2 0.000000 3.640000 10.920000 7.280000 # Ta 
419 1 2 0.000000 3.640000 10.920000 10.920000 # Ta 
420 1 2 0.000000 3.640000 10.920000 14.560000 # Ta 
421 1 2 0.000000 3.640000 14.560000 0.000000 # Ta 
422 1 2 0.000000 3.640000 14.560000 3.640000 # Ta 
423 1 2 0.000000 3.640000 14.560000 7.280000 # Ta 
424 1 2 0.000000 3.640000 14.560000 10.920000 # Ta 
425 1 2 0.000000 3.640000 14.560000 14.560000 # Ta 
426 1 2 0.000000 7.280000 0.000000 0.000000 # Ta 
427 1 2 0.000000 7.280000 0.000000 3.640000 # Ta 
428 1 2 0.000000 7.280000 0.000000 7.280000 # Ta 
429 1 2 0.000000 7.280000 0.000000 10.920000 # Ta 
430 1 2 0.000000 7.280000 0.000000 14.560000 # Ta 
431 1 2 0.000000 7.280000 3.640000 0.000000 # Ta 
432 1 2 0.000000 7.280000 3.640000 3.640000 # Ta 
433 1 2 0.000000 7.280000 3.640000 7.280000 # Ta 
434 1 2 0.000000 7.280000 3.640000 10.920000 # Ta 
435 1 2 0.000000 7.280000 3.640000 14.560000 # Ta 
436 1 2 0.000000 7.280000 7.280000 0.000000 # Ta 
437 1 2 0.000000 7.280000 7.280000 3.640000 # Ta 
438 1 2 0.000000 7.280000 7.280000 7.280000 # Ta 
439 1 2 0.000000 7.280000 7.280000 10.920000 # Ta 
440 1 2 0.000000 7.280000 7.280000 14.560000 # Ta 
441 1 2 0.000000 7.280000 10.920000 0.000000 # Ta 
442 1 2 0.000000 7.280000 10.920000 3.640000 # Ta 
443 1 2 0.000000 7.280000 10.920000 7.280000 # Ta 
444 1 2 0.000000 7.280000 10.920000 10.920000 # Ta 
445 1 2 0.000000 7.280000 10.920000 14.560000 # Ta 
446 1 2 0.000000 7.280000 14.560000 0.000000 # Ta 
447 1 2 0.000000 7.280000 14.560000 3.640000 # Ta 
448 1 2 0.000000 7.280000 14.560000 7.280000 # Ta 
449 1 2 0.000000 7.280000 14.560000 10.920000 # Ta 
450 1 2 0.000000 7.280000 14.560000 14.560000 # Ta 
451 1 2 0.000000 10.920000 0.000000 0.000000 # Ta 
452 1 2 0.000000 10.920000 0.000000 3.640000 # Ta 
453 1 2 0.000000 10.920000 0.000000 7.280000 # Ta 
454 1 2 0.000000 10.920000 0.000000 10.920000 # Ta 
455 1 2 0.000000 10.920000 0.000000 14.560000 # Ta 
456 1 2 0.000000 10.920000 3.640000 0.000000 # Ta 
457 1 2 0.000000 10.920000 3.640000 3.640000 # Ta 
458 1 2 0.000000 10.920000 3.640000 7.280000 # Ta 
459 1 2 0.000000 10.920000 3.640000 10.920000 # Ta 
460 1 2 0.000000 10.920000 3.640000 14.560000 # Ta 
461 1 2 0.000000 10.920000 7.280000 0.000000 # Ta 
462 1 2 0.000000 10.920000 7.280000 3.640000 # Ta 
463 1 2 0.000000 10.920000 7.280000 7.280000 # Ta 
464 1 2 0.000000 10.920000 7.280000 10.920000 # Ta 
465 1 2 0.000000 10.920000 7.280000 14.560000 # Ta 
466 1 2 0.000000 10.920000 10.920000 0.000000 # Ta 
467 1 2 0.000000 10.920000 10.920000 3.640000 # Ta 
468 1 2 0.000000 10.920000 10.920000 7.280000 # Ta 
469 1 2 0.000000 10.920000 10.920000 10.920000 # Ta 
470 1 2 0.000000 10.920000 10.920000 14.560000 # Ta 
471 1 2 0.000000 10.920000 14.560000 0.000000 # Ta 
472 1 2 0.000000 10.920000 14.560000 3.640000 # Ta 
473 1 2 0.000000 10.920000 14.560000 7.280000 # Ta 
474 1 2 0.000000 10.920000 14.560000 10.920000 # Ta 
475 1 2 0.000000 10.920000 14.560000 14.560000 # Ta 
476 1 2 0.000000 14.560000 0.000000 0.000000 # Ta 
477 1 2 0.000000 14.560000 0.000000 3.640000 # Ta 
478 1 2 0.000000 14.560000 0.000000 7.280000 # Ta 
479 1 2 0.000000 14.560000 0.000000 10.920000 # Ta 
480 1 2 0.000000 14.560000 0.000000 14.560000 # Ta 
481 1 2 0.000000 14.560000 3.640000 0.000000 # Ta 
482 1 2 0.000000 14.560000 3.640000 3.640000 # Ta 
483 1 2 0.000000 14.560000 3.640000 7.280000 # Ta 
484 1 2 0.000000 14.560000 3.640000 10.920000 # Ta 
485 1 2 0.000000 14.560000 3.640000 14.560000 # Ta 
486 1 2 0.000000 14.560000 7.280000 0.000000 # Ta 
487 1 2 0.000000 14.560000 7.280000 3.640000 # Ta 
488 1 2 0.000000 14.560000 7.280000 7.280000 # Ta 
489 1 2 0.000000 14.560000 7.280000 10.920000 # Ta 
490 1 2 0.000000 14.560000 7.280000 14.560000 # Ta 
491 1 2 0.000000 14.560000 10.920000 0.000000 # Ta 
492 1 2 0.000000 14.560000 10.920000 3.640000 # Ta 
493 1 2 0.000000 14.560000 10.920000 7.280000 # Ta 
494 1 2 0.000000 14.560000 10.920000 10.920000 # Ta 
495 1 2 0.000000 14.560000 10.920000 14.560000 # Ta 
496 1 2 0.000000 14.560000 14.560000 0.000000 # Ta 
497 1 2 0.000000 14.560000 14.560000 3.640000 # Ta 
498 1 2 0.000000 14.560000 14.560000 7.280000 # Ta 
499 1 2 0.000000 14.560000 14.560000 10.920000 # Ta 
500 1 2 0.000000 14.560000 14.560000 14.560000 # Ta 

