LAMMPS data file. CGCMM style. atom_style full generated by VMD/TopoTools v1.5 on Thu Dec 18 13:18:38 MSK 2025
 312 atoms
 84 bonds
 0 angles
 0 dihedrals
 0 impropers
 2 atom types
 1 bond types
 0 angle types
 0 dihedral types
 0 improper types
 -4.972565 14.827434  xlo xhi
 -4.972565 14.827434  ylo yhi
 -26.646452 79.153551  zlo zhi

# Pair Coeffs
#
# 1  Co
# 2  Ta

# Bond Coeffs
#
# 1  

 Masses

 1 58.933201 # Co
 2 180.947906 # Ta

 Atoms

1 1 1 0.000000 0.000000 0.000000 0.000000 # Co 
2 1 1 0.000000 0.000000 0.000000 26.440001 # Co 
3 1 1 0.000000 0.000000 4.930000 0.000000 # Co 
4 1 1 0.000000 0.000000 4.930000 26.440001 # Co 
5 1 1 0.000000 4.930000 0.000000 0.000000 # Co 
6 1 1 0.000000 4.930000 0.000000 26.440001 # Co 
7 1 1 0.000000 4.930000 4.930000 0.000000 # Co 
8 1 1 0.000000 4.930000 4.930000 26.440001 # Co 
9 1 1 0.000000 4.110899 3.291797 6.793185 # Co 
10 1 1 0.000000 4.110899 3.291797 33.233185 # Co 
11 1 1 0.000000 4.110899 8.221797 6.793185 # Co 
12 1 1 0.000000 4.110899 8.221797 33.233185 # Co 
13 1 1 0.000000 9.040899 3.291797 6.793185 # Co 
14 1 1 0.000000 9.040899 3.291797 33.233185 # Co 
15 1 1 0.000000 9.040899 8.221797 6.793185 # Co 
16 1 1 0.000000 9.040899 8.221797 33.233185 # Co 
17 1 1 0.000000 4.110899 0.819101 6.793185 # Co 
18 1 1 0.000000 4.110899 0.819101 33.233185 # Co 
19 1 1 0.000000 4.110899 5.749101 6.793185 # Co 
20 1 1 0.000000 4.110899 5.749101 33.233185 # Co 
21 1 1 0.000000 9.040899 0.819101 6.793185 # Co 
22 1 1 0.000000 9.040899 0.819101 33.233185 # Co 
23 1 1 0.000000 9.040899 5.749101 6.793185 # Co 
24 1 1 0.000000 9.040899 5.749101 33.233185 # Co 
25 1 1 0.000000 1.638203 0.819101 6.793185 # Co 
26 1 1 0.000000 1.638203 0.819101 33.233185 # Co 
27 1 1 0.000000 1.638203 5.749101 6.793185 # Co 
28 1 1 0.000000 1.638203 5.749101 33.233185 # Co 
29 1 1 0.000000 6.568203 0.819101 6.793185 # Co 
30 1 1 0.000000 6.568203 0.819101 33.233185 # Co 
31 1 1 0.000000 6.568203 5.749101 6.793185 # Co 
32 1 1 0.000000 6.568203 5.749101 33.233185 # Co 
33 1 1 0.000000 1.648464 0.824232 2.020148 # Co 
34 1 1 0.000000 1.648464 0.824232 28.460148 # Co 
35 1 1 0.000000 1.648464 5.754232 2.020148 # Co 
36 1 1 0.000000 1.648464 5.754232 28.460148 # Co 
37 1 1 0.000000 6.578464 0.824232 2.020148 # Co 
38 1 1 0.000000 6.578464 0.824232 28.460148 # Co 
39 1 1 0.000000 6.578464 5.754232 2.020148 # Co 
40 1 1 0.000000 6.578464 5.754232 28.460148 # Co 
41 1 1 0.000000 4.105768 3.281536 2.020148 # Co 
42 1 1 0.000000 4.105768 3.281536 28.460148 # Co 
43 1 1 0.000000 4.105768 8.211536 2.020148 # Co 
44 1 1 0.000000 4.105768 8.211536 28.460148 # Co 
45 1 1 0.000000 9.035768 3.281536 2.020148 # Co 
46 1 1 0.000000 9.035768 3.281536 28.460148 # Co 
47 1 1 0.000000 9.035768 8.211536 2.020148 # Co 
48 1 1 0.000000 9.035768 8.211536 28.460148 # Co 
49 1 1 0.000000 4.105768 0.824232 2.020148 # Co 
50 1 1 0.000000 4.105768 0.824232 28.460148 # Co 
51 1 1 0.000000 4.105768 5.754232 2.020148 # Co 
52 1 1 0.000000 4.105768 5.754232 28.460148 # Co 
53 1 1 0.000000 9.035768 0.824232 2.020148 # Co 
54 1 1 0.000000 9.035768 0.824232 28.460148 # Co 
55 1 1 0.000000 9.035768 5.754232 2.020148 # Co 
56 1 1 0.000000 9.035768 5.754232 28.460148 # Co 
57 1 1 0.000000 3.286667 1.643333 8.813333 # Co 
58 1 1 0.000000 3.286667 1.643333 35.253334 # Co 
59 1 1 0.000000 3.286667 6.573333 8.813333 # Co 
60 1 1 0.000000 3.286667 6.573333 35.253334 # Co 
61 1 1 0.000000 8.216667 1.643333 8.813333 # Co 
62 1 1 0.000000 8.216667 1.643333 35.253334 # Co 
63 1 1 0.000000 8.216667 6.573333 8.813333 # Co 
64 1 1 0.000000 8.216667 6.573333 35.253334 # Co 
65 1 1 0.000000 2.467565 0.005131 15.606519 # Co 
66 1 1 0.000000 2.467565 0.005131 42.046520 # Co 
67 1 1 0.000000 2.467565 4.935131 15.606519 # Co 
68 1 1 0.000000 2.467565 4.935131 42.046520 # Co 
69 1 1 0.000000 7.397565 0.005131 15.606519 # Co 
70 1 1 0.000000 7.397565 0.005131 42.046520 # Co 
71 1 1 0.000000 7.397565 4.935131 15.606519 # Co 
72 1 1 0.000000 7.397565 4.935131 42.046520 # Co 
73 1 1 0.000000 2.467565 2.462435 15.606519 # Co 
74 1 1 0.000000 2.467565 2.462435 42.046520 # Co 
75 1 1 0.000000 2.467565 7.392435 15.606519 # Co 
76 1 1 0.000000 2.467565 7.392435 42.046520 # Co 
77 1 1 0.000000 7.397565 2.462435 15.606519 # Co 
78 1 1 0.000000 7.397565 2.462435 42.046520 # Co 
79 1 1 0.000000 7.397565 7.392435 15.606519 # Co 
80 1 1 0.000000 7.397565 7.392435 42.046520 # Co 
81 1 1 0.000000 4.924869 2.462435 15.606519 # Co 
82 1 1 0.000000 4.924869 2.462435 42.046520 # Co 
83 1 1 0.000000 4.924869 7.392435 15.606519 # Co 
84 1 1 0.000000 4.924869 7.392435 42.046520 # Co 
85 1 1 0.000000 9.854869 2.462435 15.606519 # Co 
86 1 1 0.000000 9.854869 2.462435 42.046520 # Co 
87 1 1 0.000000 9.854869 7.392435 15.606519 # Co 
88 1 1 0.000000 9.854869 7.392435 42.046520 # Co 
89 1 1 0.000000 0.005131 2.467565 10.833481 # Co 
90 1 1 0.000000 0.005131 2.467565 37.273479 # Co 
91 1 1 0.000000 0.005131 7.397565 10.833481 # Co 
92 1 1 0.000000 0.005131 7.397565 37.273479 # Co 
93 1 1 0.000000 4.935131 2.467565 10.833481 # Co 
94 1 1 0.000000 4.935131 2.467565 37.273479 # Co 
95 1 1 0.000000 4.935131 7.397565 10.833481 # Co 
96 1 1 0.000000 4.935131 7.397565 37.273479 # Co 
97 1 1 0.000000 2.462435 4.924869 10.833481 # Co 
98 1 1 0.000000 2.462435 4.924869 37.273479 # Co 
99 1 1 0.000000 2.462435 9.854869 10.833481 # Co 
100 1 1 0.000000 2.462435 9.854869 37.273479 # Co 
101 1 1 0.000000 7.392435 4.924869 10.833481 # Co 
102 1 1 0.000000 7.392435 4.924869 37.273479 # Co 
103 1 1 0.000000 7.392435 9.854869 10.833481 # Co 
104 1 1 0.000000 7.392435 9.854869 37.273479 # Co 
105 1 1 0.000000 2.462435 2.467565 10.833481 # Co 
106 1 1 0.000000 2.462435 2.467565 37.273479 # Co 
107 1 1 0.000000 2.462435 7.397565 10.833481 # Co 
108 1 1 0.000000 2.462435 7.397565 37.273479 # Co 
109 1 1 0.000000 7.392435 2.467565 10.833481 # Co 
110 1 1 0.000000 7.392435 2.467565 37.273479 # Co 
111 1 1 0.000000 7.392435 7.397565 10.833481 # Co 
112 1 1 0.000000 7.392435 7.397565 37.273479 # Co 
113 1 1 0.000000 1.643333 3.286667 17.626667 # Co 
114 1 1 0.000000 1.643333 3.286667 44.066666 # Co 
115 1 1 0.000000 1.643333 8.216667 17.626667 # Co 
116 1 1 0.000000 1.643333 8.216667 44.066666 # Co 
117 1 1 0.000000 6.573333 3.286667 17.626667 # Co 
118 1 1 0.000000 6.573333 3.286667 44.066666 # Co 
119 1 1 0.000000 6.573333 8.216667 17.626667 # Co 
120 1 1 0.000000 6.573333 8.216667 44.066666 # Co 
121 1 1 0.000000 0.824232 1.648464 24.419851 # Co 
122 1 1 0.000000 0.824232 1.648464 50.859852 # Co 
123 1 1 0.000000 0.824232 6.578464 24.419851 # Co 
124 1 1 0.000000 0.824232 6.578464 50.859852 # Co 
125 1 1 0.000000 5.754232 1.648464 24.419851 # Co 
126 1 1 0.000000 5.754232 1.648464 50.859852 # Co 
127 1 1 0.000000 5.754232 6.578464 24.419851 # Co 
128 1 1 0.000000 5.754232 6.578464 50.859852 # Co 
129 1 1 0.000000 0.824232 4.105768 24.419851 # Co 
130 1 1 0.000000 0.824232 4.105768 50.859852 # Co 
131 1 1 0.000000 0.824232 9.035768 24.419851 # Co 
132 1 1 0.000000 0.824232 9.035768 50.859852 # Co 
133 1 1 0.000000 5.754232 4.105768 24.419851 # Co 
134 1 1 0.000000 5.754232 4.105768 50.859852 # Co 
135 1 1 0.000000 5.754232 9.035768 24.419851 # Co 
136 1 1 0.000000 5.754232 9.035768 50.859852 # Co 
137 1 1 0.000000 3.281536 4.105768 24.419851 # Co 
138 1 1 0.000000 3.281536 4.105768 50.859852 # Co 
139 1 1 0.000000 3.281536 9.035768 24.419851 # Co 
140 1 1 0.000000 3.281536 9.035768 50.859852 # Co 
141 1 1 0.000000 8.211536 4.105768 24.419851 # Co 
142 1 1 0.000000 8.211536 4.105768 50.859852 # Co 
143 1 1 0.000000 8.211536 9.035768 24.419851 # Co 
144 1 1 0.000000 8.211536 9.035768 50.859852 # Co 
145 1 1 0.000000 3.291797 4.110899 19.646814 # Co 
146 1 1 0.000000 3.291797 4.110899 46.086815 # Co 
147 1 1 0.000000 3.291797 9.040899 19.646814 # Co 
148 1 1 0.000000 3.291797 9.040899 46.086815 # Co 
149 1 1 0.000000 8.221797 4.110899 19.646814 # Co 
150 1 1 0.000000 8.221797 4.110899 46.086815 # Co 
151 1 1 0.000000 8.221797 9.040899 19.646814 # Co 
152 1 1 0.000000 8.221797 9.040899 46.086815 # Co 
153 1 1 0.000000 0.819101 1.638203 19.646814 # Co 
154 1 1 0.000000 0.819101 1.638203 46.086815 # Co 
155 1 1 0.000000 0.819101 6.568203 19.646814 # Co 
156 1 1 0.000000 0.819101 6.568203 46.086815 # Co 
157 1 1 0.000000 5.749101 1.638203 19.646814 # Co 
158 1 1 0.000000 5.749101 1.638203 46.086815 # Co 
159 1 1 0.000000 5.749101 6.568203 19.646814 # Co 
160 1 1 0.000000 5.749101 6.568203 46.086815 # Co 
161 1 1 0.000000 0.819101 4.110899 19.646814 # Co 
162 1 1 0.000000 0.819101 4.110899 46.086815 # Co 
163 1 1 0.000000 0.819101 9.040899 19.646814 # Co 
164 1 1 0.000000 0.819101 9.040899 46.086815 # Co 
165 1 1 0.000000 5.749101 4.110899 19.646814 # Co 
166 1 1 0.000000 5.749101 4.110899 46.086815 # Co 
167 1 1 0.000000 5.749101 9.040899 19.646814 # Co 
168 1 1 0.000000 5.749101 9.040899 46.086815 # Co 
169 1 2 0.000000 0.000000 0.000000 4.391684 # Ta 
170 1 2 0.000000 0.000000 0.000000 30.831684 # Ta 
171 1 2 0.000000 0.000000 4.930000 4.391684 # Ta 
172 1 2 0.000000 0.000000 4.930000 30.831684 # Ta 
173 1 2 0.000000 4.930000 0.000000 4.391684 # Ta 
174 1 2 0.000000 4.930000 0.000000 30.831684 # Ta 
175 1 2 0.000000 4.930000 4.930000 4.391684 # Ta 
176 1 2 0.000000 4.930000 4.930000 30.831684 # Ta 
177 1 2 0.000000 3.286667 1.643333 4.421649 # Ta 
178 1 2 0.000000 3.286667 1.643333 30.861649 # Ta 
179 1 2 0.000000 3.286667 6.573333 4.421649 # Ta 
180 1 2 0.000000 3.286667 6.573333 30.861649 # Ta 
181 1 2 0.000000 8.216667 1.643333 4.421649 # Ta 
182 1 2 0.000000 8.216667 1.643333 30.861649 # Ta 
183 1 2 0.000000 8.216667 6.573333 4.421649 # Ta 
184 1 2 0.000000 8.216667 6.573333 30.861649 # Ta 
185 1 2 0.000000 1.643333 3.286667 0.372901 # Ta 
186 1 2 0.000000 1.643333 3.286667 26.812901 # Ta 
187 1 2 0.000000 1.643333 8.216667 0.372901 # Ta 
188 1 2 0.000000 1.643333 8.216667 26.812901 # Ta 
189 1 2 0.000000 6.573333 3.286667 0.372901 # Ta 
190 1 2 0.000000 6.573333 3.286667 26.812901 # Ta 
191 1 2 0.000000 6.573333 8.216667 0.372901 # Ta 
192 1 2 0.000000 6.573333 8.216667 26.812901 # Ta 
193 1 2 0.000000 1.643333 3.286667 8.440432 # Ta 
194 1 2 0.000000 1.643333 3.286667 34.880432 # Ta 
195 1 2 0.000000 1.643333 8.216667 8.440432 # Ta 
196 1 2 0.000000 1.643333 8.216667 34.880432 # Ta 
197 1 2 0.000000 6.573333 3.286667 8.440432 # Ta 
198 1 2 0.000000 6.573333 3.286667 34.880432 # Ta 
199 1 2 0.000000 6.573333 8.216667 8.440432 # Ta 
200 1 2 0.000000 6.573333 8.216667 34.880432 # Ta 
201 1 2 0.000000 1.643333 3.286667 3.094450 # Ta 
202 1 2 0.000000 1.643333 3.286667 29.534451 # Ta 
203 1 2 0.000000 1.643333 8.216667 3.094450 # Ta 
204 1 2 0.000000 1.643333 8.216667 29.534451 # Ta 
205 1 2 0.000000 6.573333 3.286667 3.094450 # Ta 
206 1 2 0.000000 6.573333 3.286667 29.534451 # Ta 
207 1 2 0.000000 6.573333 8.216667 3.094450 # Ta 
208 1 2 0.000000 6.573333 8.216667 29.534451 # Ta 
209 1 2 0.000000 1.643333 3.286667 5.718884 # Ta 
210 1 2 0.000000 1.643333 3.286667 32.158882 # Ta 
211 1 2 0.000000 1.643333 8.216667 5.718884 # Ta 
212 1 2 0.000000 1.643333 8.216667 32.158882 # Ta 
213 1 2 0.000000 6.573333 3.286667 5.718884 # Ta 
214 1 2 0.000000 6.573333 3.286667 32.158882 # Ta 
215 1 2 0.000000 6.573333 8.216667 5.718884 # Ta 
216 1 2 0.000000 6.573333 8.216667 32.158882 # Ta 
217 1 2 0.000000 3.286667 1.643333 13.205017 # Ta 
218 1 2 0.000000 3.286667 1.643333 39.645016 # Ta 
219 1 2 0.000000 3.286667 6.573333 13.205017 # Ta 
220 1 2 0.000000 3.286667 6.573333 39.645016 # Ta 
221 1 2 0.000000 8.216667 1.643333 13.205017 # Ta 
222 1 2 0.000000 8.216667 1.643333 39.645016 # Ta 
223 1 2 0.000000 8.216667 6.573333 13.205017 # Ta 
224 1 2 0.000000 8.216667 6.573333 39.645016 # Ta 
225 1 2 0.000000 1.643333 3.286667 13.234983 # Ta 
226 1 2 0.000000 1.643333 3.286667 39.674984 # Ta 
227 1 2 0.000000 1.643333 8.216667 13.234983 # Ta 
228 1 2 0.000000 1.643333 8.216667 39.674984 # Ta 
229 1 2 0.000000 6.573333 3.286667 13.234983 # Ta 
230 1 2 0.000000 6.573333 3.286667 39.674984 # Ta 
231 1 2 0.000000 6.573333 8.216667 13.234983 # Ta 
232 1 2 0.000000 6.573333 8.216667 39.674984 # Ta 
233 1 2 0.000000 0.000000 0.000000 9.186234 # Ta 
234 1 2 0.000000 0.000000 0.000000 35.626232 # Ta 
235 1 2 0.000000 0.000000 4.930000 9.186234 # Ta 
236 1 2 0.000000 0.000000 4.930000 35.626232 # Ta 
237 1 2 0.000000 4.930000 0.000000 9.186234 # Ta 
238 1 2 0.000000 4.930000 0.000000 35.626232 # Ta 
239 1 2 0.000000 4.930000 4.930000 9.186234 # Ta 
240 1 2 0.000000 4.930000 4.930000 35.626232 # Ta 
241 1 2 0.000000 0.000000 0.000000 17.253765 # Ta 
242 1 2 0.000000 0.000000 0.000000 43.693768 # Ta 
243 1 2 0.000000 0.000000 4.930000 17.253765 # Ta 
244 1 2 0.000000 0.000000 4.930000 43.693768 # Ta 
245 1 2 0.000000 4.930000 0.000000 17.253765 # Ta 
246 1 2 0.000000 4.930000 0.000000 43.693768 # Ta 
247 1 2 0.000000 4.930000 4.930000 17.253765 # Ta 
248 1 2 0.000000 4.930000 4.930000 43.693768 # Ta 
249 1 2 0.000000 0.000000 0.000000 11.907783 # Ta 
250 1 2 0.000000 0.000000 0.000000 38.347782 # Ta 
251 1 2 0.000000 0.000000 4.930000 11.907783 # Ta 
252 1 2 0.000000 0.000000 4.930000 38.347782 # Ta 
253 1 2 0.000000 4.930000 0.000000 11.907783 # Ta 
254 1 2 0.000000 4.930000 0.000000 38.347782 # Ta 
255 1 2 0.000000 4.930000 4.930000 11.907783 # Ta 
256 1 2 0.000000 4.930000 4.930000 38.347782 # Ta 
257 1 2 0.000000 0.000000 0.000000 14.532217 # Ta 
258 1 2 0.000000 0.000000 0.000000 40.972218 # Ta 
259 1 2 0.000000 0.000000 4.930000 14.532217 # Ta 
260 1 2 0.000000 0.000000 4.930000 40.972218 # Ta 
261 1 2 0.000000 4.930000 0.000000 14.532217 # Ta 
262 1 2 0.000000 4.930000 0.000000 40.972218 # Ta 
263 1 2 0.000000 4.930000 4.930000 14.532217 # Ta 
264 1 2 0.000000 4.930000 4.930000 40.972218 # Ta 
265 1 2 0.000000 1.643333 3.286667 22.018351 # Ta 
266 1 2 0.000000 1.643333 3.286667 48.458351 # Ta 
267 1 2 0.000000 1.643333 8.216667 22.018351 # Ta 
268 1 2 0.000000 1.643333 8.216667 48.458351 # Ta 
269 1 2 0.000000 6.573333 3.286667 22.018351 # Ta 
270 1 2 0.000000 6.573333 3.286667 48.458351 # Ta 
271 1 2 0.000000 6.573333 8.216667 22.018351 # Ta 
272 1 2 0.000000 6.573333 8.216667 48.458351 # Ta 
273 1 2 0.000000 0.000000 0.000000 22.048315 # Ta 
274 1 2 0.000000 0.000000 0.000000 48.488316 # Ta 
275 1 2 0.000000 0.000000 4.930000 22.048315 # Ta 
276 1 2 0.000000 0.000000 4.930000 48.488316 # Ta 
277 1 2 0.000000 4.930000 0.000000 22.048315 # Ta 
278 1 2 0.000000 4.930000 0.000000 48.488316 # Ta 
279 1 2 0.000000 4.930000 4.930000 22.048315 # Ta 
280 1 2 0.000000 4.930000 4.930000 48.488316 # Ta 
281 1 2 0.000000 3.286667 1.643333 17.999569 # Ta 
282 1 2 0.000000 3.286667 1.643333 44.439568 # Ta 
283 1 2 0.000000 3.286667 6.573333 17.999569 # Ta 
284 1 2 0.000000 3.286667 6.573333 44.439568 # Ta 
285 1 2 0.000000 8.216667 1.643333 17.999569 # Ta 
286 1 2 0.000000 8.216667 1.643333 44.439568 # Ta 
287 1 2 0.000000 8.216667 6.573333 17.999569 # Ta 
288 1 2 0.000000 8.216667 6.573333 44.439568 # Ta 
289 1 2 0.000000 3.286667 1.643333 26.067099 # Ta 
290 1 2 0.000000 3.286667 1.643333 52.507099 # Ta 
291 1 2 0.000000 3.286667 6.573333 26.067099 # Ta 
292 1 2 0.000000 3.286667 6.573333 52.507099 # Ta 
293 1 2 0.000000 8.216667 1.643333 26.067099 # Ta 
294 1 2 0.000000 8.216667 1.643333 52.507099 # Ta 
295 1 2 0.000000 8.216667 6.573333 26.067099 # Ta 
296 1 2 0.000000 8.216667 6.573333 52.507099 # Ta 
297 1 2 0.000000 3.286667 1.643333 20.721115 # Ta 
298 1 2 0.000000 3.286667 1.643333 47.161118 # Ta 
299 1 2 0.000000 3.286667 6.573333 20.721115 # Ta 
300 1 2 0.000000 3.286667 6.573333 47.161118 # Ta 
301 1 2 0.000000 8.216667 1.643333 20.721115 # Ta 
302 1 2 0.000000 8.216667 1.643333 47.161118 # Ta 
303 1 2 0.000000 8.216667 6.573333 20.721115 # Ta 
304 1 2 0.000000 8.216667 6.573333 47.161118 # Ta 
305 1 2 0.000000 3.286667 1.643333 23.345551 # Ta 
306 1 2 0.000000 3.286667 1.643333 49.785549 # Ta 
307 1 2 0.000000 3.286667 6.573333 23.345551 # Ta 
308 1 2 0.000000 3.286667 6.573333 49.785549 # Ta 
309 1 2 0.000000 8.216667 1.643333 23.345551 # Ta 
310 1 2 0.000000 8.216667 1.643333 49.785549 # Ta 
311 1 2 0.000000 8.216667 6.573333 23.345551 # Ta 
312 1 2 0.000000 8.216667 6.573333 49.785549 # Ta 

 Bonds

1 1 3 185
2 1 4 129
3 1 4 186
4 1 5 49
5 1 6 50
6 1 6 289
7 1 7 189
8 1 7 51
9 1 8 52
10 1 8 291
11 1 8 190
12 1 8 133
13 1 17 57
14 1 18 58
15 1 19 59
16 1 20 60
17 1 21 61
18 1 22 62
19 1 23 63
20 1 24 64
21 1 57 237
22 1 57 105
23 1 57 193
24 1 58 238
25 1 58 106
26 1 58 194
27 1 59 239
28 1 59 107
29 1 59 195
30 1 60 196
31 1 60 240
32 1 60 108
33 1 61 109
34 1 61 197
35 1 62 198
36 1 62 110
37 1 63 199
38 1 63 111
39 1 64 200
40 1 64 112
41 1 73 113
42 1 74 114
43 1 75 115
44 1 76 116
45 1 77 117
46 1 78 118
47 1 79 119
48 1 80 120
49 1 113 243
50 1 113 161
51 1 113 281
52 1 114 244
53 1 114 162
54 1 114 282
55 1 115 163
56 1 115 283
57 1 116 164
58 1 116 284
59 1 117 247
60 1 117 165
61 1 117 285
62 1 118 248
63 1 118 166
64 1 118 286
65 1 119 167
66 1 119 287
67 1 120 168
68 1 120 288
69 1 173 177
70 1 174 178
71 1 175 179
72 1 176 180
73 1 217 225
74 1 218 226
75 1 219 227
76 1 220 228
77 1 221 229
78 1 222 230
79 1 223 231
80 1 224 232
81 1 265 275
82 1 266 276
83 1 269 279
84 1 270 280

