LAMMPS data file. CGCMM style. atom_style full generated by VMD/TopoTools v1.5 on Thu Dec 18 13:18:07 MSK 2025
 8 atoms
 12 bonds
 0 angles
 0 dihedrals
 0 impropers
 2 atom types
 1 bond types
 0 angle types
 0 dihedral types
 0 improper types
 -6.085001 10.115000  xlo xhi
 -6.085001 10.115000  ylo yhi
 -6.085000 10.115001  zlo zhi

# Pair Coeffs
#
# 1  Co
# 2  Ta

# Bond Coeffs
#
# 1  

 Masses

 1 58.933201 # Co
 2 180.947906 # Ta

 Atoms

1 1 2 0.000000 3.356990 2.683980 1.007500 # Ta 
2 1 2 0.000000 0.673010 3.356990 3.022500 # Ta 
3 1 2 0.000000 1.346020 0.673010 1.007500 # Ta 
4 1 2 0.000000 0.673010 1.346020 3.022500 # Ta 
5 1 2 0.000000 3.356990 0.673010 1.007500 # Ta 
6 1 2 0.000000 2.683980 3.356990 3.022500 # Ta 
7 1 1 0.000000 1.343333 2.686667 1.007500 # Co 
8 1 1 0.000000 2.686667 1.343333 3.022500 # Co 

 Bonds

1 1 1 6
2 1 1 5
3 1 1 7
4 1 2 6
5 1 2 4
6 1 2 7
7 1 3 4
8 1 3 7
9 1 3 5
10 1 4 8
11 1 5 8
12 1 6 8

