LAMMPS (20 Nov 2019)
#---------------------------------------------------------------------#
#---------- Simulation of Co1Ta3 in triclinic (P1) ----#
#-------------------- Writer:: Your Name ----------------------------#
#-------------------- Temperature: 300 Kelvin -----------------------#
#---------------------------------------------------------------------#

#---------------------Define initial value
variable              Temperature equal 300     # 300 K
variable              Pressure    equal 1.01325 # 1.01325 bar
variable              Timestep    equal 0.001   # 0.001 ps=1 fs::Ref[1]

#-----------------------------------------------------------#
#----------------------Initialization-----------------------#
#-----------------------------------------------------------#

#----------------------Define units, atom_style, dimension and boundary
echo                   both
units                  metal
dimension              1
ERROR: Illegal dimension command (src/input.cpp:1560)
Last command: dimension              1
