LAMMPS data file. CGCMM style. atom_style full generated by VMD/TopoTools v1.5 on Mon Dec 01 13:10:29 MSK 2025
 402 atoms
 0 bonds
 0 angles
 0 dihedrals
 0 impropers
 2 atom types
 0 bond types
 0 angle types
 0 dihedral types
 0 improper types
 -0.027500 18.372500  xlo xhi
 -0.027500 18.372500  ylo yhi
 -0.042000 14.958000  zlo zhi

# Pair Coeffs
#
# 1  Co
# 2  Ta

 Masses

 1 58.933201 # Co
 2 180.947906 # Ta

 Atoms

1 1 1 0.000000 0.000000 0.000000 1.243000 # Co 
2 1 1 0.000000 0.000000 18.344999 1.243000 # Co 
3 1 1 0.000000 18.344999 0.000000 1.243000 # Co 
4 1 1 0.000000 18.344999 18.344999 1.243000 # Co 
5 1 1 0.000000 0.000000 0.000000 13.673000 # Co 
6 1 1 0.000000 0.000000 18.344999 13.673000 # Co 
7 1 1 0.000000 18.344999 0.000000 13.673000 # Co 
8 1 1 0.000000 18.344999 18.344999 13.673000 # Co 
9 1 1 0.000000 0.000000 0.000000 3.729000 # Co 
10 1 1 0.000000 0.000000 18.344999 3.729000 # Co 
11 1 1 0.000000 18.344999 0.000000 3.729000 # Co 
12 1 1 0.000000 18.344999 18.344999 3.729000 # Co 
13 1 1 0.000000 3.057500 3.057500 3.729000 # Co 
14 1 1 0.000000 3.057500 3.057500 1.243000 # Co 
15 1 1 0.000000 3.057500 3.057500 13.673000 # Co 
16 1 1 0.000000 0.000000 0.000000 6.215000 # Co 
17 1 1 0.000000 0.000000 18.344999 6.215000 # Co 
18 1 1 0.000000 18.344999 0.000000 6.215000 # Co 
19 1 1 0.000000 18.344999 18.344999 6.215000 # Co 
20 1 1 0.000000 0.000000 0.000000 8.701000 # Co 
21 1 1 0.000000 0.000000 18.344999 8.701000 # Co 
22 1 1 0.000000 18.344999 0.000000 8.701000 # Co 
23 1 1 0.000000 18.344999 18.344999 8.701000 # Co 
24 1 1 0.000000 0.000000 0.000000 11.187000 # Co 
25 1 1 0.000000 0.000000 18.344999 11.187000 # Co 
26 1 1 0.000000 18.344999 0.000000 11.187000 # Co 
27 1 1 0.000000 18.344999 18.344999 11.187000 # Co 
28 1 1 0.000000 3.057500 3.057500 8.701000 # Co 
29 1 1 0.000000 3.057500 3.057500 11.187000 # Co 
30 1 1 0.000000 3.057500 3.057500 6.215000 # Co 
31 1 1 0.000000 0.000000 6.115000 1.243000 # Co 
32 1 1 0.000000 18.344999 6.115000 1.243000 # Co 
33 1 1 0.000000 0.000000 12.230000 13.673000 # Co 
34 1 1 0.000000 18.344999 12.230000 13.673000 # Co 
35 1 1 0.000000 0.000000 12.230000 1.243000 # Co 
36 1 1 0.000000 18.344999 12.230000 1.243000 # Co 
37 1 1 0.000000 0.000000 6.115000 13.673000 # Co 
38 1 1 0.000000 18.344999 6.115000 13.673000 # Co 
39 1 1 0.000000 12.230000 0.000000 1.243000 # Co 
40 1 1 0.000000 12.230000 18.344999 1.243000 # Co 
41 1 1 0.000000 6.115000 0.000000 13.673000 # Co 
42 1 1 0.000000 6.115000 18.344999 13.673000 # Co 
43 1 1 0.000000 6.115000 0.000000 1.243000 # Co 
44 1 1 0.000000 6.115000 18.344999 1.243000 # Co 
45 1 1 0.000000 12.230000 0.000000 13.673000 # Co 
46 1 1 0.000000 12.230000 18.344999 13.673000 # Co 
47 1 1 0.000000 0.000000 12.230000 3.729000 # Co 
48 1 1 0.000000 18.344999 12.230000 3.729000 # Co 
49 1 1 0.000000 0.000000 6.115000 3.729000 # Co 
50 1 1 0.000000 18.344999 6.115000 3.729000 # Co 
51 1 1 0.000000 12.230000 0.000000 3.729000 # Co 
52 1 1 0.000000 12.230000 18.344999 3.729000 # Co 
53 1 1 0.000000 6.115000 0.000000 3.729000 # Co 
54 1 1 0.000000 6.115000 18.344999 3.729000 # Co 
55 1 1 0.000000 3.057500 9.172500 3.729000 # Co 
56 1 1 0.000000 3.057500 15.287499 1.243000 # Co 
57 1 1 0.000000 3.057500 15.287499 3.729000 # Co 
58 1 1 0.000000 3.057500 9.172500 1.243000 # Co 
59 1 1 0.000000 15.287499 3.057500 3.729000 # Co 
60 1 1 0.000000 9.172500 3.057500 1.243000 # Co 
61 1 1 0.000000 9.172500 3.057500 3.729000 # Co 
62 1 1 0.000000 15.287499 3.057500 1.243000 # Co 
63 1 1 0.000000 3.057500 9.172500 13.673000 # Co 
64 1 1 0.000000 3.057500 15.287499 13.673000 # Co 
65 1 1 0.000000 9.172500 3.057500 13.673000 # Co 
66 1 1 0.000000 15.287499 3.057500 13.673000 # Co 
67 1 1 0.000000 0.000000 6.115000 6.215000 # Co 
68 1 1 0.000000 18.344999 6.115000 6.215000 # Co 
69 1 1 0.000000 0.000000 12.230000 8.701000 # Co 
70 1 1 0.000000 18.344999 12.230000 8.701000 # Co 
71 1 1 0.000000 0.000000 12.230000 6.215000 # Co 
72 1 1 0.000000 18.344999 12.230000 6.215000 # Co 
73 1 1 0.000000 0.000000 6.115000 8.701000 # Co 
74 1 1 0.000000 18.344999 6.115000 8.701000 # Co 
75 1 1 0.000000 12.230000 0.000000 6.215000 # Co 
76 1 1 0.000000 12.230000 18.344999 6.215000 # Co 
77 1 1 0.000000 6.115000 0.000000 8.701000 # Co 
78 1 1 0.000000 6.115000 18.344999 8.701000 # Co 
79 1 1 0.000000 6.115000 0.000000 6.215000 # Co 
80 1 1 0.000000 6.115000 18.344999 6.215000 # Co 
81 1 1 0.000000 12.230000 0.000000 8.701000 # Co 
82 1 1 0.000000 12.230000 18.344999 8.701000 # Co 
83 1 1 0.000000 0.000000 6.115000 11.187000 # Co 
84 1 1 0.000000 18.344999 6.115000 11.187000 # Co 
85 1 1 0.000000 0.000000 12.230000 11.187000 # Co 
86 1 1 0.000000 18.344999 12.230000 11.187000 # Co 
87 1 1 0.000000 6.115000 0.000000 11.187000 # Co 
88 1 1 0.000000 6.115000 18.344999 11.187000 # Co 
89 1 1 0.000000 12.230000 0.000000 11.187000 # Co 
90 1 1 0.000000 12.230000 18.344999 11.187000 # Co 
91 1 1 0.000000 3.057500 9.172500 8.701000 # Co 
92 1 1 0.000000 3.057500 15.287499 11.187000 # Co 
93 1 1 0.000000 3.057500 15.287499 8.701000 # Co 
94 1 1 0.000000 3.057500 9.172500 11.187000 # Co 
95 1 1 0.000000 15.287499 3.057500 8.701000 # Co 
96 1 1 0.000000 9.172500 3.057500 11.187000 # Co 
97 1 1 0.000000 9.172500 3.057500 8.701000 # Co 
98 1 1 0.000000 15.287499 3.057500 11.187000 # Co 
99 1 1 0.000000 3.057500 15.287499 6.215000 # Co 
100 1 1 0.000000 3.057500 9.172500 6.215000 # Co 
101 1 1 0.000000 15.287499 3.057500 6.215000 # Co 
102 1 1 0.000000 9.172500 3.057500 6.215000 # Co 
103 1 1 0.000000 6.115000 6.115000 1.243000 # Co 
104 1 1 0.000000 12.230000 12.230000 13.673000 # Co 
105 1 1 0.000000 12.230000 12.230000 1.243000 # Co 
106 1 1 0.000000 6.115000 6.115000 13.673000 # Co 
107 1 1 0.000000 12.230000 6.115000 1.243000 # Co 
108 1 1 0.000000 6.115000 12.230000 13.673000 # Co 
109 1 1 0.000000 6.115000 12.230000 1.243000 # Co 
110 1 1 0.000000 12.230000 6.115000 13.673000 # Co 
111 1 1 0.000000 6.115000 12.230000 3.729000 # Co 
112 1 1 0.000000 12.230000 6.115000 3.729000 # Co 
113 1 1 0.000000 12.230000 12.230000 3.729000 # Co 
114 1 1 0.000000 6.115000 6.115000 3.729000 # Co 
115 1 1 0.000000 9.172500 9.172500 3.729000 # Co 
116 1 1 0.000000 15.287499 15.287499 1.243000 # Co 
117 1 1 0.000000 15.287499 15.287499 3.729000 # Co 
118 1 1 0.000000 9.172500 9.172500 1.243000 # Co 
119 1 1 0.000000 15.287499 9.172500 3.729000 # Co 
120 1 1 0.000000 9.172500 15.287499 1.243000 # Co 
121 1 1 0.000000 9.172500 15.287499 3.729000 # Co 
122 1 1 0.000000 15.287499 9.172500 1.243000 # Co 
123 1 1 0.000000 15.287499 9.172500 13.673000 # Co 
124 1 1 0.000000 9.172500 15.287499 13.673000 # Co 
125 1 1 0.000000 9.172500 9.172500 13.673000 # Co 
126 1 1 0.000000 15.287499 15.287499 13.673000 # Co 
127 1 1 0.000000 6.115000 6.115000 6.215000 # Co 
128 1 1 0.000000 12.230000 12.230000 8.701000 # Co 
129 1 1 0.000000 12.230000 12.230000 6.215000 # Co 
130 1 1 0.000000 6.115000 6.115000 8.701000 # Co 
131 1 1 0.000000 12.230000 6.115000 6.215000 # Co 
132 1 1 0.000000 6.115000 12.230000 8.701000 # Co 
133 1 1 0.000000 6.115000 12.230000 6.215000 # Co 
134 1 1 0.000000 12.230000 6.115000 8.701000 # Co 
135 1 1 0.000000 12.230000 6.115000 11.187000 # Co 
136 1 1 0.000000 6.115000 12.230000 11.187000 # Co 
137 1 1 0.000000 6.115000 6.115000 11.187000 # Co 
138 1 1 0.000000 12.230000 12.230000 11.187000 # Co 
139 1 1 0.000000 9.172500 9.172500 8.701000 # Co 
140 1 1 0.000000 15.287499 15.287499 11.187000 # Co 
141 1 1 0.000000 15.287499 15.287499 8.701000 # Co 
142 1 1 0.000000 9.172500 9.172500 11.187000 # Co 
143 1 1 0.000000 15.287499 9.172500 8.701000 # Co 
144 1 1 0.000000 9.172500 15.287499 11.187000 # Co 
145 1 1 0.000000 9.172500 15.287499 8.701000 # Co 
146 1 1 0.000000 15.287499 9.172500 11.187000 # Co 
147 1 1 0.000000 9.172500 15.287499 6.215000 # Co 
148 1 1 0.000000 15.287499 9.172500 6.215000 # Co 
149 1 1 0.000000 15.287499 15.287499 6.215000 # Co 
150 1 1 0.000000 9.172500 9.172500 6.215000 # Co 
151 1 2 0.000000 0.966781 4.024281 0.000000 # Ta 
152 1 2 0.000000 0.966781 4.024281 14.916000 # Ta 
153 1 2 0.000000 17.378218 14.320718 0.000000 # Ta 
154 1 2 0.000000 17.378218 14.320718 14.916000 # Ta 
155 1 2 0.000000 14.320718 0.966781 0.000000 # Ta 
156 1 2 0.000000 14.320718 0.966781 14.916000 # Ta 
157 1 2 0.000000 4.024281 17.378218 0.000000 # Ta 
158 1 2 0.000000 4.024281 17.378218 14.916000 # Ta 
159 1 2 0.000000 17.378218 4.024281 2.486000 # Ta 
160 1 2 0.000000 0.966781 14.320718 2.486000 # Ta 
161 1 2 0.000000 4.024281 0.966781 2.486000 # Ta 
162 1 2 0.000000 14.320718 17.378218 2.486000 # Ta 
163 1 2 0.000000 4.024281 7.081781 2.486000 # Ta 
164 1 2 0.000000 2.090718 17.378218 2.486000 # Ta 
165 1 2 0.000000 7.081781 2.090718 2.486000 # Ta 
166 1 2 0.000000 2.090718 7.081781 0.000000 # Ta 
167 1 2 0.000000 2.090718 7.081781 14.916000 # Ta 
168 1 2 0.000000 7.081781 4.024281 0.000000 # Ta 
169 1 2 0.000000 7.081781 4.024281 14.916000 # Ta 
170 1 2 0.000000 17.378218 2.090718 0.000000 # Ta 
171 1 2 0.000000 17.378218 2.090718 14.916000 # Ta 
172 1 2 0.000000 0.966781 4.024281 4.972000 # Ta 
173 1 2 0.000000 17.378218 14.320718 9.944000 # Ta 
174 1 2 0.000000 17.378218 14.320718 4.972000 # Ta 
175 1 2 0.000000 0.966781 4.024281 9.944000 # Ta 
176 1 2 0.000000 14.320718 0.966781 4.972000 # Ta 
177 1 2 0.000000 4.024281 17.378218 9.944000 # Ta 
178 1 2 0.000000 4.024281 17.378218 4.972000 # Ta 
179 1 2 0.000000 14.320718 0.966781 9.944000 # Ta 
180 1 2 0.000000 17.378218 4.024281 12.430000 # Ta 
181 1 2 0.000000 0.966781 14.320718 7.458000 # Ta 
182 1 2 0.000000 0.966781 14.320718 12.430000 # Ta 
183 1 2 0.000000 17.378218 4.024281 7.458000 # Ta 
184 1 2 0.000000 4.024281 0.966781 12.430000 # Ta 
185 1 2 0.000000 14.320718 17.378218 7.458000 # Ta 
186 1 2 0.000000 14.320718 17.378218 12.430000 # Ta 
187 1 2 0.000000 4.024281 0.966781 7.458000 # Ta 
188 1 2 0.000000 4.024281 7.081781 7.458000 # Ta 
189 1 2 0.000000 2.090718 17.378218 12.430000 # Ta 
190 1 2 0.000000 2.090718 17.378218 7.458000 # Ta 
191 1 2 0.000000 4.024281 7.081781 12.430000 # Ta 
192 1 2 0.000000 7.081781 2.090718 12.430000 # Ta 
193 1 2 0.000000 7.081781 2.090718 7.458000 # Ta 
194 1 2 0.000000 2.090718 7.081781 9.944000 # Ta 
195 1 2 0.000000 2.090718 7.081781 4.972000 # Ta 
196 1 2 0.000000 7.081781 4.024281 9.944000 # Ta 
197 1 2 0.000000 17.378218 2.090718 4.972000 # Ta 
198 1 2 0.000000 17.378218 2.090718 9.944000 # Ta 
199 1 2 0.000000 7.081781 4.024281 4.972000 # Ta 
200 1 2 0.000000 0.966781 10.139281 0.000000 # Ta 
201 1 2 0.000000 0.966781 10.139281 14.916000 # Ta 
202 1 2 0.000000 17.378218 8.205718 0.000000 # Ta 
203 1 2 0.000000 17.378218 8.205718 14.916000 # Ta 
204 1 2 0.000000 8.205718 0.966781 0.000000 # Ta 
205 1 2 0.000000 8.205718 0.966781 14.916000 # Ta 
206 1 2 0.000000 10.139281 17.378218 0.000000 # Ta 
207 1 2 0.000000 10.139281 17.378218 14.916000 # Ta 
208 1 2 0.000000 17.378218 10.139281 2.486000 # Ta 
209 1 2 0.000000 0.966781 8.205718 2.486000 # Ta 
210 1 2 0.000000 10.139281 0.966781 2.486000 # Ta 
211 1 2 0.000000 8.205718 17.378218 2.486000 # Ta 
212 1 2 0.000000 4.024281 13.196781 2.486000 # Ta 
213 1 2 0.000000 2.090718 11.263218 2.486000 # Ta 
214 1 2 0.000000 11.263218 4.024281 2.486000 # Ta 
215 1 2 0.000000 13.196781 2.090718 2.486000 # Ta 
216 1 2 0.000000 2.090718 13.196781 0.000000 # Ta 
217 1 2 0.000000 2.090718 13.196781 14.916000 # Ta 
218 1 2 0.000000 4.024281 11.263218 0.000000 # Ta 
219 1 2 0.000000 4.024281 11.263218 14.916000 # Ta 
220 1 2 0.000000 13.196781 4.024281 0.000000 # Ta 
221 1 2 0.000000 13.196781 4.024281 14.916000 # Ta 
222 1 2 0.000000 11.263218 2.090718 0.000000 # Ta 
223 1 2 0.000000 11.263218 2.090718 14.916000 # Ta 
224 1 2 0.000000 0.966781 10.139281 4.972000 # Ta 
225 1 2 0.000000 17.378218 8.205718 9.944000 # Ta 
226 1 2 0.000000 17.378218 8.205718 4.972000 # Ta 
227 1 2 0.000000 0.966781 10.139281 9.944000 # Ta 
228 1 2 0.000000 8.205718 0.966781 4.972000 # Ta 
229 1 2 0.000000 10.139281 17.378218 9.944000 # Ta 
230 1 2 0.000000 10.139281 17.378218 4.972000 # Ta 
231 1 2 0.000000 8.205718 0.966781 9.944000 # Ta 
232 1 2 0.000000 17.378218 10.139281 12.430000 # Ta 
233 1 2 0.000000 0.966781 8.205718 7.458000 # Ta 
234 1 2 0.000000 0.966781 8.205718 12.430000 # Ta 
235 1 2 0.000000 17.378218 10.139281 7.458000 # Ta 
236 1 2 0.000000 10.139281 0.966781 12.430000 # Ta 
237 1 2 0.000000 8.205718 17.378218 7.458000 # Ta 
238 1 2 0.000000 8.205718 17.378218 12.430000 # Ta 
239 1 2 0.000000 10.139281 0.966781 7.458000 # Ta 
240 1 2 0.000000 4.024281 13.196781 7.458000 # Ta 
241 1 2 0.000000 2.090718 11.263218 12.430000 # Ta 
242 1 2 0.000000 2.090718 11.263218 7.458000 # Ta 
243 1 2 0.000000 4.024281 13.196781 12.430000 # Ta 
244 1 2 0.000000 11.263218 4.024281 7.458000 # Ta 
245 1 2 0.000000 13.196781 2.090718 12.430000 # Ta 
246 1 2 0.000000 13.196781 2.090718 7.458000 # Ta 
247 1 2 0.000000 11.263218 4.024281 12.430000 # Ta 
248 1 2 0.000000 2.090718 13.196781 9.944000 # Ta 
249 1 2 0.000000 4.024281 11.263218 4.972000 # Ta 
250 1 2 0.000000 4.024281 11.263218 9.944000 # Ta 
251 1 2 0.000000 2.090718 13.196781 4.972000 # Ta 
252 1 2 0.000000 13.196781 4.024281 9.944000 # Ta 
253 1 2 0.000000 11.263218 2.090718 4.972000 # Ta 
254 1 2 0.000000 11.263218 2.090718 9.944000 # Ta 
255 1 2 0.000000 13.196781 4.024281 4.972000 # Ta 
256 1 2 0.000000 0.966781 16.254280 0.000000 # Ta 
257 1 2 0.000000 0.966781 16.254280 14.916000 # Ta 
258 1 2 0.000000 2.090718 0.966781 0.000000 # Ta 
259 1 2 0.000000 2.090718 0.966781 14.916000 # Ta 
260 1 2 0.000000 16.254280 17.378218 0.000000 # Ta 
261 1 2 0.000000 16.254280 17.378218 14.916000 # Ta 
262 1 2 0.000000 17.378218 16.254280 2.486000 # Ta 
263 1 2 0.000000 0.966781 2.090718 2.486000 # Ta 
264 1 2 0.000000 16.254280 0.966781 2.486000 # Ta 
265 1 2 0.000000 2.090718 5.148218 2.486000 # Ta 
266 1 2 0.000000 5.148218 4.024281 2.486000 # Ta 
267 1 2 0.000000 4.024281 5.148218 0.000000 # Ta 
268 1 2 0.000000 4.024281 5.148218 14.916000 # Ta 
269 1 2 0.000000 5.148218 2.090718 0.000000 # Ta 
270 1 2 0.000000 5.148218 2.090718 14.916000 # Ta 
271 1 2 0.000000 0.966781 16.254280 4.972000 # Ta 
272 1 2 0.000000 0.966781 16.254280 9.944000 # Ta 
273 1 2 0.000000 2.090718 0.966781 4.972000 # Ta 
274 1 2 0.000000 16.254280 17.378218 9.944000 # Ta 
275 1 2 0.000000 16.254280 17.378218 4.972000 # Ta 
276 1 2 0.000000 2.090718 0.966781 9.944000 # Ta 
277 1 2 0.000000 17.378218 16.254280 12.430000 # Ta 
278 1 2 0.000000 0.966781 2.090718 7.458000 # Ta 
279 1 2 0.000000 0.966781 2.090718 12.430000 # Ta 
280 1 2 0.000000 17.378218 16.254280 7.458000 # Ta 
281 1 2 0.000000 16.254280 0.966781 12.430000 # Ta 
282 1 2 0.000000 16.254280 0.966781 7.458000 # Ta 
283 1 2 0.000000 2.090718 5.148218 12.430000 # Ta 
284 1 2 0.000000 2.090718 5.148218 7.458000 # Ta 
285 1 2 0.000000 5.148218 4.024281 7.458000 # Ta 
286 1 2 0.000000 5.148218 4.024281 12.430000 # Ta 
287 1 2 0.000000 4.024281 5.148218 4.972000 # Ta 
288 1 2 0.000000 4.024281 5.148218 9.944000 # Ta 
289 1 2 0.000000 5.148218 2.090718 4.972000 # Ta 
290 1 2 0.000000 5.148218 2.090718 9.944000 # Ta 
291 1 2 0.000000 11.263218 14.320718 0.000000 # Ta 
292 1 2 0.000000 11.263218 14.320718 14.916000 # Ta 
293 1 2 0.000000 14.320718 7.081781 0.000000 # Ta 
294 1 2 0.000000 14.320718 7.081781 14.916000 # Ta 
295 1 2 0.000000 7.081781 14.320718 2.486000 # Ta 
296 1 2 0.000000 14.320718 11.263218 2.486000 # Ta 
297 1 2 0.000000 10.139281 7.081781 2.486000 # Ta 
298 1 2 0.000000 7.081781 10.139281 0.000000 # Ta 
299 1 2 0.000000 7.081781 10.139281 14.916000 # Ta 
300 1 2 0.000000 11.263218 14.320718 9.944000 # Ta 
301 1 2 0.000000 11.263218 14.320718 4.972000 # Ta 
302 1 2 0.000000 14.320718 7.081781 4.972000 # Ta 
303 1 2 0.000000 14.320718 7.081781 9.944000 # Ta 
304 1 2 0.000000 7.081781 14.320718 7.458000 # Ta 
305 1 2 0.000000 7.081781 14.320718 12.430000 # Ta 
306 1 2 0.000000 14.320718 11.263218 7.458000 # Ta 
307 1 2 0.000000 14.320718 11.263218 12.430000 # Ta 
308 1 2 0.000000 10.139281 7.081781 7.458000 # Ta 
309 1 2 0.000000 10.139281 7.081781 12.430000 # Ta 
310 1 2 0.000000 7.081781 10.139281 9.944000 # Ta 
311 1 2 0.000000 7.081781 10.139281 4.972000 # Ta 
312 1 2 0.000000 11.263218 8.205718 0.000000 # Ta 
313 1 2 0.000000 11.263218 8.205718 14.916000 # Ta 
314 1 2 0.000000 8.205718 7.081781 0.000000 # Ta 
315 1 2 0.000000 8.205718 7.081781 14.916000 # Ta 
316 1 2 0.000000 10.139281 11.263218 0.000000 # Ta 
317 1 2 0.000000 10.139281 11.263218 14.916000 # Ta 
318 1 2 0.000000 11.263218 10.139281 2.486000 # Ta 
319 1 2 0.000000 7.081781 8.205718 2.486000 # Ta 
320 1 2 0.000000 8.205718 11.263218 2.486000 # Ta 
321 1 2 0.000000 10.139281 13.196781 2.486000 # Ta 
322 1 2 0.000000 13.196781 14.320718 2.486000 # Ta 
323 1 2 0.000000 14.320718 13.196781 0.000000 # Ta 
324 1 2 0.000000 14.320718 13.196781 14.916000 # Ta 
325 1 2 0.000000 13.196781 10.139281 0.000000 # Ta 
326 1 2 0.000000 13.196781 10.139281 14.916000 # Ta 
327 1 2 0.000000 11.263218 8.205718 9.944000 # Ta 
328 1 2 0.000000 11.263218 8.205718 4.972000 # Ta 
329 1 2 0.000000 8.205718 7.081781 4.972000 # Ta 
330 1 2 0.000000 10.139281 11.263218 9.944000 # Ta 
331 1 2 0.000000 10.139281 11.263218 4.972000 # Ta 
332 1 2 0.000000 8.205718 7.081781 9.944000 # Ta 
333 1 2 0.000000 11.263218 10.139281 12.430000 # Ta 
334 1 2 0.000000 7.081781 8.205718 7.458000 # Ta 
335 1 2 0.000000 7.081781 8.205718 12.430000 # Ta 
336 1 2 0.000000 11.263218 10.139281 7.458000 # Ta 
337 1 2 0.000000 8.205718 11.263218 7.458000 # Ta 
338 1 2 0.000000 8.205718 11.263218 12.430000 # Ta 
339 1 2 0.000000 10.139281 13.196781 7.458000 # Ta 
340 1 2 0.000000 10.139281 13.196781 12.430000 # Ta 
341 1 2 0.000000 13.196781 14.320718 12.430000 # Ta 
342 1 2 0.000000 13.196781 14.320718 7.458000 # Ta 
343 1 2 0.000000 14.320718 13.196781 9.944000 # Ta 
344 1 2 0.000000 14.320718 13.196781 4.972000 # Ta 
345 1 2 0.000000 13.196781 10.139281 9.944000 # Ta 
346 1 2 0.000000 13.196781 10.139281 4.972000 # Ta 
347 1 2 0.000000 7.081781 16.254280 0.000000 # Ta 
348 1 2 0.000000 7.081781 16.254280 14.916000 # Ta 
349 1 2 0.000000 16.254280 11.263218 0.000000 # Ta 
350 1 2 0.000000 16.254280 11.263218 14.916000 # Ta 
351 1 2 0.000000 11.263218 16.254280 2.486000 # Ta 
352 1 2 0.000000 16.254280 7.081781 2.486000 # Ta 
353 1 2 0.000000 14.320718 5.148218 2.486000 # Ta 
354 1 2 0.000000 5.148218 10.139281 2.486000 # Ta 
355 1 2 0.000000 10.139281 5.148218 0.000000 # Ta 
356 1 2 0.000000 10.139281 5.148218 14.916000 # Ta 
357 1 2 0.000000 5.148218 14.320718 0.000000 # Ta 
358 1 2 0.000000 5.148218 14.320718 14.916000 # Ta 
359 1 2 0.000000 7.081781 16.254280 4.972000 # Ta 
360 1 2 0.000000 7.081781 16.254280 9.944000 # Ta 
361 1 2 0.000000 16.254280 11.263218 9.944000 # Ta 
362 1 2 0.000000 16.254280 11.263218 4.972000 # Ta 
363 1 2 0.000000 11.263218 16.254280 12.430000 # Ta 
364 1 2 0.000000 11.263218 16.254280 7.458000 # Ta 
365 1 2 0.000000 16.254280 7.081781 12.430000 # Ta 
366 1 2 0.000000 16.254280 7.081781 7.458000 # Ta 
367 1 2 0.000000 14.320718 5.148218 12.430000 # Ta 
368 1 2 0.000000 14.320718 5.148218 7.458000 # Ta 
369 1 2 0.000000 5.148218 10.139281 7.458000 # Ta 
370 1 2 0.000000 5.148218 10.139281 12.430000 # Ta 
371 1 2 0.000000 10.139281 5.148218 4.972000 # Ta 
372 1 2 0.000000 10.139281 5.148218 9.944000 # Ta 
373 1 2 0.000000 5.148218 14.320718 4.972000 # Ta 
374 1 2 0.000000 5.148218 14.320718 9.944000 # Ta 
375 1 2 0.000000 5.148218 8.205718 0.000000 # Ta 
376 1 2 0.000000 5.148218 8.205718 14.916000 # Ta 
377 1 2 0.000000 8.205718 13.196781 0.000000 # Ta 
378 1 2 0.000000 8.205718 13.196781 14.916000 # Ta 
379 1 2 0.000000 13.196781 8.205718 2.486000 # Ta 
380 1 2 0.000000 8.205718 5.148218 2.486000 # Ta 
381 1 2 0.000000 16.254280 13.196781 2.486000 # Ta 
382 1 2 0.000000 13.196781 16.254280 0.000000 # Ta 
383 1 2 0.000000 13.196781 16.254280 14.916000 # Ta 
384 1 2 0.000000 5.148218 8.205718 9.944000 # Ta 
385 1 2 0.000000 5.148218 8.205718 4.972000 # Ta 
386 1 2 0.000000 8.205718 13.196781 4.972000 # Ta 
387 1 2 0.000000 8.205718 13.196781 9.944000 # Ta 
388 1 2 0.000000 13.196781 8.205718 7.458000 # Ta 
389 1 2 0.000000 13.196781 8.205718 12.430000 # Ta 
390 1 2 0.000000 8.205718 5.148218 7.458000 # Ta 
391 1 2 0.000000 8.205718 5.148218 12.430000 # Ta 
392 1 2 0.000000 16.254280 13.196781 7.458000 # Ta 
393 1 2 0.000000 16.254280 13.196781 12.430000 # Ta 
394 1 2 0.000000 13.196781 16.254280 9.944000 # Ta 
395 1 2 0.000000 13.196781 16.254280 4.972000 # Ta 
396 1 2 0.000000 16.254280 5.148218 0.000000 # Ta 
397 1 2 0.000000 16.254280 5.148218 14.916000 # Ta 
398 1 2 0.000000 5.148218 16.254280 2.486000 # Ta 
399 1 2 0.000000 16.254280 5.148218 9.944000 # Ta 
400 1 2 0.000000 16.254280 5.148218 4.972000 # Ta 
401 1 2 0.000000 5.148218 16.254280 12.430000 # Ta 
402 1 2 0.000000 5.148218 16.254280 7.458000 # Ta 

