ITEM: TIMESTEP
0
ITEM: NUMBER OF ATOMS
402
ITEM: BOX BOUNDS pp pp pp
-2.7500000000000000e-02 1.8372499999999999e+01
-2.7500000000000000e-02 1.8372499999999999e+01
-4.2000000000000003e-02 1.4958000000000000e+01
ITEM: ATOMS id type xs ys zs
258 2 0.116782 0.174279 0.0602852
157 2 0.124757 0.00135275 0.0955686
9 1 0.0973805 0.105894 0.176828
13 1 0.181323 0.191375 0.232135
43 1 0.225556 0.0749648 0.0629618
161 2 0.225567 0.0648542 0.215591
269 2 0.260937 0.196928 0.103344
204 2 0.345255 0.0553508 0.110413
53 1 0.310775 0.156977 0.245882
165 2 0.417578 0.17427 0.176677
60 1 0.401849 0.149037 0.0408547
206 2 0.492865 0.00577006 0.159382
61 1 0.534528 0.1247 0.159736
215 2 0.697749 0.122227 0.193746
222 2 0.609482 0.0783555 0.040869
62 1 0.79862 0.125976 0.0958329
220 2 0.712851 0.189016 0.0244195
40 1 0.62798 0.0194526 0.173131
156 2 0.751034 0.00858952 0.0993114
170 2 0.988254 0.0861544 0.114108
264 2 0.84549 0.0587055 0.245078
159 2 0.890922 0.185688 0.166992
7 1 0.878818 0.03592 0.07864
38 1 0.907437 0.159171 0.0114471
14 1 0.153015 0.284199 0.00592896
263 2 0.0421728 0.2195 0.215573
31 1 0.0743876 0.347216 0.0848757
265 2 0.158735 0.308239 0.173627
209 2 0.024834 0.390329 0.209768
103 1 0.33727 0.365028 0.127062
168 2 0.369241 0.26609 0.0246569
266 2 0.298548 0.285427 0.238809
267 2 0.24748 0.358508 0.0173708
297 2 0.585837 0.388201 0.169965
355 2 0.509958 0.201359 0.0181795
380 2 0.452778 0.30755 0.169342
107 1 0.526812 0.331876 0.0531332
214 2 0.600485 0.235389 0.147421
293 2 0.652908 0.323658 0.00664435
353 2 0.740879 0.272038 0.17746
122 1 0.758843 0.369095 0.0855055
151 2 0.988811 0.265948 0.0579575
32 1 0.952612 0.390135 0.0905095
352 2 0.882102 0.334882 0.184667
396 2 0.836695 0.276122 0.0266288
166 2 0.126083 0.458216 0.0900018
208 2 0.0502609 0.563045 0.211543
213 2 0.198383 0.580352 0.160867
55 1 0.130101 0.469358 0.236948
163 2 0.244619 0.428021 0.198318
58 1 0.235736 0.58559 0.0219637
354 2 0.334888 0.555872 0.246178
375 2 0.311882 0.496761 0.0709174
314 2 0.413851 0.403039 0.00328883
298 2 0.438426 0.561382 0.0530519
319 2 0.422375 0.44428 0.194592
118 1 0.522291 0.495347 0.129639
316 2 0.590364 0.591121 0.080419
320 2 0.490652 0.586837 0.235582
318 2 0.63422 0.531336 0.232959
325 2 0.689707 0.468663 0.0757453
379 2 0.732285 0.405173 0.243582
296 2 0.789098 0.538402 0.228355
202 2 0.98932 0.500467 0.047613
349 2 0.846613 0.459511 0.0857576
119 1 0.934673 0.51163 0.189507
200 2 0.0972988 0.615312 0.0352761
35 1 0.0930258 0.741565 0.0173165
160 2 0.0294915 0.71694 0.179559
216 2 0.178409 0.743975 0.144688
47 1 0.127596 0.659057 0.243569
218 2 0.316914 0.664191 0.099343
109 1 0.435477 0.663981 0.133809
377 2 0.42647 0.785341 0.108169
105 1 0.557504 0.689791 0.170699
378 2 0.51277 0.698585 0.0108283
322 2 0.662041 0.747314 0.213197
323 2 0.728205 0.629642 0.112618
116 1 0.714711 0.742481 0.0670019
36 1 0.991418 0.621124 0.101931
153 2 0.966999 0.708531 0.00249416
381 2 0.874352 0.612675 0.110223
260 2 0.841059 0.761266 0.109761
48 1 0.912186 0.714548 0.214285
56 1 0.182775 0.889311 0.0729126
164 2 0.191053 0.901625 0.223715
256 2 0.0705852 0.843854 0.100309
10 1 0.0577594 0.923779 0.206537
357 2 0.282877 0.820328 0.0475344
44 1 0.288907 0.938847 0.128339
347 2 0.398698 0.921941 0.0518702
398 2 0.306566 0.813741 0.224898
291 2 0.598072 0.803405 0.0701169
120 1 0.514471 0.886833 0.115505
121 1 0.418287 0.882477 0.214859
39 1 0.652618 0.921774 0.075291
351 2 0.611317 0.900849 0.222738
382 2 0.745206 0.858678 0.144587
46 1 0.775881 0.912816 0.0111362
155 2 0.883081 0.912398 0.0707658
3 1 0.999125 0.958497 0.0821529
4 1 0.954075 0.808539 0.0811293
262 2 0.945002 0.861119 0.219978
11 1 0.942273 0.993177 0.20549
12 1 0.824803 0.939402 0.21045
30 1 0.143539 0.160824 0.467123
273 2 0.103398 0.112307 0.329518
17 1 0.125205 0.00453129 0.262531
278 2 0.0655529 0.038924 0.475785
79 1 0.308551 0.0284538 0.384829
289 2 0.253584 0.130428 0.377696
193 2 0.385846 0.0902281 0.480785
210 2 0.580971 0.0695645 0.300781
228 2 0.421763 0.0800344 0.304678
75 1 0.500658 0.0381822 0.412853
239 2 0.530472 0.149295 0.467352
51 1 0.742811 0.0983626 0.347989
59 1 0.792156 0.189571 0.263217
255 2 0.664004 0.197106 0.339623
246 2 0.657475 0.0598889 0.455047
16 1 0.982217 0.107849 0.275751
176 2 0.806812 0.0419719 0.456059
18 1 0.918276 0.0360993 0.393161
197 2 0.884049 0.155888 0.362878
49 1 0.0697447 0.306197 0.316915
172 2 0.020827 0.211786 0.413246
195 2 0.158071 0.396732 0.348136
287 2 0.175015 0.254499 0.36538
284 2 0.0568461 0.353305 0.468127
114 1 0.394095 0.344598 0.306306
127 1 0.286961 0.299151 0.398831
199 2 0.381423 0.214542 0.371275
102 1 0.485973 0.260743 0.433093
253 2 0.522731 0.208126 0.29723
329 2 0.515984 0.35301 0.332957
390 2 0.401917 0.344154 0.468093
101 1 0.76339 0.219059 0.418576
371 2 0.620134 0.306706 0.443465
112 1 0.639145 0.311956 0.275157
131 1 0.718391 0.35704 0.385493
67 1 0.96003 0.353942 0.34757
50 1 0.938274 0.248265 0.286182
68 1 0.902441 0.256894 0.450405
400 2 0.822918 0.304512 0.34153
366 2 0.904311 0.380814 0.479282
224 2 0.0217826 0.474938 0.349757
249 2 0.178863 0.547946 0.335207
72 1 0.0527021 0.593096 0.384649
100 1 0.2337 0.480013 0.450313
385 2 0.307939 0.426373 0.351445
369 2 0.315089 0.583678 0.431188
311 2 0.43988 0.484299 0.378115
115 1 0.533771 0.463658 0.276965
150 1 0.545997 0.553977 0.38651
302 2 0.77747 0.45716 0.424484
328 2 0.628876 0.450962 0.380419
346 2 0.708745 0.586515 0.390561
148 1 0.830753 0.574663 0.361713
226 2 0.882837 0.44778 0.300321
73 1 0.996758 0.452669 0.499433
235 2 0.91429 0.535011 0.463293
71 1 0.0168367 0.718714 0.330499
251 2 0.126068 0.699014 0.390132
57 1 0.193644 0.782669 0.292026
91 1 0.182849 0.604655 0.465982
212 2 0.251752 0.674697 0.299076
295 2 0.389954 0.699448 0.265815
133 1 0.312188 0.756362 0.393315
321 2 0.510831 0.788135 0.251468
111 1 0.421563 0.605019 0.363973
331 2 0.58141 0.666426 0.33768
386 2 0.457096 0.717818 0.417061
113 1 0.686228 0.635593 0.256534
129 1 0.693457 0.72109 0.384427
344 2 0.797047 0.691307 0.276338
174 2 0.9092 0.77149 0.364364
362 2 0.935088 0.614298 0.298597
306 2 0.818733 0.680475 0.458629
392 2 0.973467 0.668439 0.470433
99 1 0.0933039 0.914922 0.418068
271 2 0.0786676 0.828564 0.3001
178 2 0.193104 0.983494 0.380645
181 2 0.0432456 0.806507 0.485473
190 2 0.0116569 0.983808 0.323522
211 2 0.338337 0.968807 0.260476
373 2 0.203914 0.832039 0.432728
54 1 0.283828 0.888994 0.351196
359 2 0.3984 0.845956 0.374252
301 2 0.585781 0.826446 0.403228
80 1 0.405204 0.963765 0.423415
230 2 0.496159 0.939261 0.317612
162 2 0.718641 0.983953 0.290541
52 1 0.610355 0.951195 0.384024
76 1 0.72891 0.932992 0.431025
395 2 0.726984 0.834973 0.333307
19 1 0.975036 0.871281 0.379359
117 1 0.82869 0.816755 0.257067
149 1 0.816563 0.821007 0.447484
275 2 0.857943 0.923223 0.360581
20 1 0.0417385 0.164245 0.566625
276 2 0.165319 0.0204579 0.733164
187 2 0.198461 0.0661546 0.541477
21 1 0.0729921 0.0482919 0.627362
279 2 0.122242 0.154641 0.684958
28 1 0.236971 0.157527 0.645539
290 2 0.320212 0.0725427 0.634002
87 1 0.406345 0.0409613 0.744404
97 1 0.573468 0.17484 0.60703
231 2 0.480039 0.10275 0.64595
81 1 0.553878 0.0320141 0.546306
89 1 0.742775 0.146719 0.644284
254 2 0.637801 0.0705473 0.653003
244 2 0.67607 0.189758 0.528702
82 1 0.730854 0.0145538 0.578339
179 2 0.832785 0.0606037 0.64759
22 1 0.941274 0.00591817 0.624723
95 1 0.917584 0.160473 0.64905
198 2 0.976849 0.0792377 0.733319
282 2 0.946647 0.0945442 0.520832
252 2 0.826598 0.179114 0.533864
83 1 0.121313 0.287447 0.714922
175 2 0.126764 0.258901 0.561544
74 1 0.0250054 0.352151 0.621926
130 1 0.322605 0.322211 0.578101
137 1 0.371741 0.281809 0.707294
188 2 0.22311 0.36649 0.50781
285 2 0.269434 0.21353 0.519402
288 2 0.242247 0.270971 0.696956
196 2 0.405063 0.217489 0.579134
332 2 0.438073 0.380929 0.659954
372 2 0.533574 0.285742 0.574743
309 2 0.586815 0.3619 0.713117
391 2 0.491576 0.244251 0.745062
134 1 0.665 0.309699 0.600736
368 2 0.772696 0.316872 0.525838
247 2 0.655763 0.224732 0.7133
367 2 0.743403 0.35738 0.710817
84 1 0.872332 0.341006 0.622246
183 2 0.959834 0.259913 0.579589
399 2 0.825875 0.236921 0.700686
180 2 0.999407 0.225981 0.742884
194 2 0.137791 0.406164 0.646848
227 2 0.0865972 0.54564 0.687816
233 2 0.10368 0.502157 0.500608
70 1 0.00318119 0.573672 0.578769
334 2 0.35218 0.469551 0.533068
384 2 0.221826 0.532674 0.590671
335 2 0.28878 0.409387 0.680094
308 2 0.522517 0.429761 0.514471
139 1 0.437065 0.505178 0.630199
327 2 0.560998 0.501407 0.666628
337 2 0.467142 0.58793 0.520755
135 1 0.673405 0.46404 0.717267
336 2 0.611119 0.562996 0.514622
345 2 0.718413 0.572564 0.640018
388 2 0.674884 0.431576 0.561394
143 1 0.79239 0.556174 0.518568
303 2 0.824532 0.460088 0.60907
146 1 0.902473 0.531954 0.741159
225 2 0.96894 0.458714 0.643579
85 1 0.088916 0.671534 0.731532
242 2 0.096621 0.65609 0.558709
248 2 0.0910157 0.789759 0.673011
93 1 0.154411 0.769734 0.546891
310 2 0.346302 0.602539 0.636505
132 1 0.374978 0.678931 0.516321
136 1 0.322664 0.727976 0.666964
240 2 0.25437 0.699137 0.511002
250 2 0.201662 0.667813 0.671441
147 1 0.501816 0.797828 0.512095
330 2 0.570584 0.641335 0.685924
339 2 0.584537 0.704516 0.516484
387 2 0.453383 0.719167 0.629397
128 1 0.705407 0.657899 0.523623
138 1 0.651922 0.729096 0.643999
342 2 0.705733 0.795019 0.512061
343 2 0.773402 0.709345 0.637812
69 1 0.991613 0.709921 0.625474
86 1 0.882691 0.709079 0.7049
173 2 0.897987 0.783472 0.559569
361 2 0.88297 0.60617 0.616279
272 2 0.0353646 0.94107 0.687837
88 1 0.156938 0.894026 0.709537
177 2 0.137919 0.922125 0.559857
77 1 0.24552 0.966114 0.634619
304 2 0.362635 0.812716 0.536585
374 2 0.243688 0.826819 0.635411
360 2 0.358175 0.92622 0.683271
402 2 0.301784 0.944675 0.502937
300 2 0.567721 0.819687 0.651357
78 1 0.419371 0.997887 0.583883
145 1 0.44508 0.848711 0.640336
229 2 0.515059 0.96371 0.688241
237 2 0.49121 0.919494 0.509752
90 1 0.635934 0.951193 0.699937
364 2 0.63562 0.927944 0.544442
394 2 0.708081 0.850774 0.680775
185 2 0.805193 0.91368 0.550887
23 1 0.990191 0.84708 0.614864
141 1 0.818855 0.821337 0.657291
274 2 0.881759 0.917097 0.696583
280 2 0.954235 0.933821 0.507962
1 1 0.0534939 0.0542491 0.991208
24 1 0.0798251 0.113732 0.814104
259 2 0.163577 0.0791107 0.920746
152 2 0.0154006 0.158878 0.93329
29 1 0.223969 0.137207 0.797484
15 1 0.213852 0.180809 0.965402
41 1 0.363354 0.00627696 0.944181
184 2 0.296346 0.0228139 0.813353
270 2 0.31966 0.122655 0.940426
286 2 0.348224 0.169478 0.75736
96 1 0.568014 0.140926 0.756052
192 2 0.467583 0.1167 0.840907
205 2 0.468572 0.0580938 0.992666
236 2 0.59299 0.0344407 0.83145
45 1 0.691841 0.0963065 0.929991
223 2 0.608443 0.184181 0.888626
245 2 0.741504 0.124214 0.798923
26 1 0.86365 0.0191885 0.792363
98 1 0.868398 0.143177 0.792626
5 1 0.942808 0.0783478 0.881419
66 1 0.80245 0.185548 0.922214
171 2 0.827992 0.0677579 0.944242
37 1 0.0171847 0.279444 0.900667
167 2 0.0895491 0.378821 0.941399
283 2 0.132181 0.234688 0.85818
234 2 0.0359715 0.362181 0.776065
169 2 0.377085 0.347661 0.833233
191 2 0.206092 0.373872 0.824986
268 2 0.276496 0.256632 0.881687
65 1 0.414478 0.223855 0.888808
356 2 0.514905 0.310551 0.901646
110 1 0.626318 0.302744 0.841413
221 2 0.743166 0.273985 0.859166
294 2 0.787515 0.395659 0.933966
365 2 0.889609 0.372913 0.767693
397 2 0.899351 0.246085 0.867782
203 2 0.940198 0.379526 0.946653
94 1 0.12484 0.464823 0.794904
63 1 0.0795962 0.512301 0.947435
201 2 0.00047567 0.495382 0.835858
376 2 0.199065 0.492942 0.940544
106 1 0.313214 0.441009 0.900196
299 2 0.375704 0.500874 0.771406
370 2 0.237463 0.533319 0.769217
219 2 0.323733 0.585296 0.919488
312 2 0.55025 0.451266 0.997518
142 1 0.486076 0.55341 0.761567
315 2 0.505416 0.440201 0.824951
125 1 0.42685 0.50468 0.916961
317 2 0.53465 0.583402 0.888071
313 2 0.654768 0.428464 0.866654
326 2 0.764329 0.547315 0.956199
333 2 0.662799 0.577998 0.804769
389 2 0.787074 0.489516 0.783004
104 1 0.639558 0.536489 0.951949
123 1 0.879257 0.463739 0.876144
350 2 0.904498 0.577286 0.929862
92 1 0.181521 0.773142 0.780787
33 1 0.0187137 0.624392 0.91059
182 2 0.0681498 0.738223 0.860747
241 2 0.133111 0.605711 0.849373
217 2 0.207207 0.69547 0.968264
243 2 0.274465 0.688022 0.807045
358 2 0.370388 0.735646 0.943265
64 1 0.264196 0.785789 0.900585
108 1 0.432908 0.637651 0.93186
338 2 0.417537 0.651043 0.783461
340 2 0.531715 0.732666 0.812005
124 1 0.599135 0.78384 0.920722
292 2 0.655178 0.672522 0.952134
341 2 0.680162 0.731088 0.79266
232 2 0.975077 0.635015 0.759852
307 2 0.810134 0.632347 0.792697
324 2 0.804582 0.694426 0.957237
34 1 0.91334 0.711719 0.86564
393 2 0.81883 0.791152 0.805048
277 2 0.961327 0.798268 0.758469
2 1 0.0811186 0.927826 0.97892
25 1 0.0744204 0.864406 0.816356
6 1 0.166255 0.960396 0.869713
189 2 0.040949 0.992757 0.861317
257 2 0.155035 0.839902 0.935331
305 2 0.381359 0.802857 0.775298
42 1 0.349325 0.878286 0.909452
158 2 0.251145 0.966387 0.983754
401 2 0.25299 0.884058 0.806132
144 1 0.494895 0.853192 0.778005
348 2 0.478265 0.832735 0.935077
207 2 0.558883 0.943648 0.986252
238 2 0.443488 0.957359 0.848049
140 1 0.73301 0.880023 0.823424
281 2 0.744328 0.986293 0.751008
186 2 0.702186 0.977288 0.928843
363 2 0.606942 0.880752 0.828228
383 2 0.716284 0.823097 0.953436
27 1 0.955077 0.91521 0.811623
154 2 0.984143 0.852732 0.939221
8 1 0.937647 0.980256 0.957078
126 1 0.862578 0.810121 0.959911
261 2 0.845638 0.921705 0.883546
ITEM: TIMESTEP
100
ITEM: NUMBER OF ATOMS
402
ITEM: BOX BOUNDS pp pp pp
-2.7500000000000000e-02 1.8372499999999999e+01
-2.7500000000000000e-02 1.8372499999999999e+01
-4.2000000000000003e-02 1.4958000000000000e+01
ITEM: ATOMS id type xs ys zs
258 2 0.116782 0.174279 0.0602852
157 2 0.124757 0.00135275 0.0955686
9 1 0.0973805 0.105894 0.176828
13 1 0.181323 0.191375 0.232135
43 1 0.225556 0.0749648 0.0629618
161 2 0.225567 0.0648542 0.215591
269 2 0.260937 0.196928 0.103344
204 2 0.345255 0.0553508 0.110413
53 1 0.310775 0.156977 0.245882
165 2 0.417578 0.17427 0.176677
60 1 0.401849 0.149037 0.0408547
206 2 0.492865 0.00577006 0.159382
61 1 0.534528 0.1247 0.159736
215 2 0.697749 0.122227 0.193746
222 2 0.609482 0.0783555 0.040869
62 1 0.79862 0.125976 0.0958329
220 2 0.712851 0.189016 0.0244195
40 1 0.62798 0.0194526 0.173131
156 2 0.751034 0.00858952 0.0993114
170 2 0.988254 0.0861544 0.114108
264 2 0.84549 0.0587055 0.245078
159 2 0.890922 0.185688 0.166992
7 1 0.878818 0.03592 0.07864
38 1 0.907437 0.159171 0.0114471
14 1 0.153015 0.284199 0.00592896
263 2 0.0421728 0.2195 0.215573
31 1 0.0743876 0.347216 0.0848757
265 2 0.158735 0.308239 0.173627
209 2 0.024834 0.390329 0.209768
103 1 0.33727 0.365028 0.127062
168 2 0.369241 0.26609 0.0246569
266 2 0.298548 0.285427 0.238809
267 2 0.24748 0.358508 0.0173708
297 2 0.585837 0.388201 0.169965
355 2 0.509958 0.201359 0.0181795
380 2 0.452778 0.30755 0.169342
107 1 0.526812 0.331876 0.0531332
214 2 0.600485 0.235389 0.147421
293 2 0.652908 0.323658 0.00664435
353 2 0.740879 0.272038 0.17746
122 1 0.758843 0.369095 0.0855055
151 2 0.988811 0.265948 0.0579575
32 1 0.952612 0.390135 0.0905095
352 2 0.882102 0.334882 0.184667
396 2 0.836695 0.276122 0.0266288
166 2 0.126083 0.458216 0.0900018
208 2 0.0502609 0.563045 0.211543
213 2 0.198383 0.580352 0.160867
55 1 0.130101 0.469358 0.236948
163 2 0.244619 0.428021 0.198318
58 1 0.235736 0.58559 0.0219637
354 2 0.334888 0.555872 0.246178
375 2 0.311882 0.496761 0.0709174
314 2 0.413851 0.403039 0.00328883
298 2 0.438426 0.561382 0.0530519
319 2 0.422375 0.44428 0.194592
118 1 0.522291 0.495347 0.129639
316 2 0.590364 0.591121 0.080419
320 2 0.490652 0.586837 0.235582
318 2 0.63422 0.531336 0.232959
325 2 0.689707 0.468663 0.0757453
379 2 0.732285 0.405173 0.243582
296 2 0.789098 0.538402 0.228355
202 2 0.98932 0.500467 0.047613
349 2 0.846613 0.459511 0.0857576
119 1 0.934673 0.51163 0.189507
200 2 0.0972988 0.615312 0.0352761
35 1 0.0930258 0.741565 0.0173165
160 2 0.0294915 0.71694 0.179559
216 2 0.178409 0.743975 0.144688
47 1 0.127596 0.659057 0.243569
218 2 0.316914 0.664191 0.099343
109 1 0.435477 0.663981 0.133809
377 2 0.42647 0.785341 0.108169
105 1 0.557504 0.689791 0.170699
378 2 0.51277 0.698585 0.0108283
322 2 0.662041 0.747314 0.213197
323 2 0.728205 0.629642 0.112618
116 1 0.714711 0.742481 0.0670019
36 1 0.991418 0.621124 0.101931
153 2 0.966999 0.708531 0.00249416
381 2 0.874352 0.612675 0.110223
260 2 0.841059 0.761266 0.109761
48 1 0.912186 0.714548 0.214285
56 1 0.182775 0.889311 0.0729126
164 2 0.191053 0.901625 0.223715
256 2 0.0705852 0.843854 0.100309
10 1 0.0577594 0.923779 0.206537
357 2 0.282877 0.820328 0.0475344
44 1 0.288907 0.938847 0.128339
347 2 0.398698 0.921941 0.0518702
398 2 0.306566 0.813741 0.224898
291 2 0.598072 0.803405 0.0701169
120 1 0.514471 0.886833 0.115505
121 1 0.418287 0.882477 0.214859
39 1 0.652618 0.921774 0.075291
351 2 0.611317 0.900849 0.222738
382 2 0.745206 0.858678 0.144587
46 1 0.775881 0.912816 0.0111362
155 2 0.883081 0.912398 0.0707658
3 1 0.999125 0.958497 0.0821529
4 1 0.954075 0.808539 0.0811293
262 2 0.945002 0.861119 0.219978
11 1 0.942273 0.993177 0.20549
12 1 0.824803 0.939402 0.21045
30 1 0.143539 0.160824 0.467123
273 2 0.103398 0.112307 0.329518
17 1 0.125205 0.00453129 0.262531
278 2 0.0655529 0.038924 0.475785
79 1 0.308551 0.0284538 0.384829
289 2 0.253584 0.130428 0.377696
193 2 0.385846 0.0902281 0.480785
210 2 0.580971 0.0695645 0.300781
228 2 0.421763 0.0800344 0.304678
75 1 0.500658 0.0381822 0.412853
239 2 0.530472 0.149295 0.467352
51 1 0.742811 0.0983626 0.347989
59 1 0.792156 0.189571 0.263217
255 2 0.664004 0.197106 0.339623
246 2 0.657475 0.0598889 0.455047
16 1 0.982217 0.107849 0.275751
176 2 0.806812 0.0419719 0.456059
18 1 0.918276 0.0360993 0.393161
197 2 0.884049 0.155888 0.362878
49 1 0.0697447 0.306197 0.316915
172 2 0.020827 0.211786 0.413246
195 2 0.158071 0.396732 0.348136
287 2 0.175015 0.254499 0.36538
284 2 0.0568461 0.353305 0.468127
114 1 0.394095 0.344598 0.306306
127 1 0.286961 0.299151 0.398831
199 2 0.381423 0.214542 0.371275
102 1 0.485973 0.260743 0.433093
253 2 0.522731 0.208126 0.29723
329 2 0.515984 0.35301 0.332957
390 2 0.401917 0.344154 0.468093
101 1 0.76339 0.219059 0.418576
371 2 0.620134 0.306706 0.443465
112 1 0.639145 0.311956 0.275157
131 1 0.718391 0.35704 0.385493
67 1 0.96003 0.353942 0.34757
50 1 0.938274 0.248265 0.286182
68 1 0.902441 0.256894 0.450405
400 2 0.822918 0.304512 0.34153
366 2 0.904311 0.380814 0.479282
224 2 0.0217826 0.474938 0.349757
249 2 0.178863 0.547946 0.335207
72 1 0.0527021 0.593096 0.384649
100 1 0.2337 0.480013 0.450313
385 2 0.307939 0.426373 0.351445
369 2 0.315089 0.583678 0.431188
311 2 0.43988 0.484299 0.378115
115 1 0.533771 0.463658 0.276965
150 1 0.545997 0.553977 0.38651
302 2 0.77747 0.45716 0.424484
328 2 0.628876 0.450962 0.380419
346 2 0.708745 0.586515 0.390561
148 1 0.830753 0.574663 0.361713
226 2 0.882837 0.44778 0.300321
73 1 0.996758 0.452669 0.499433
235 2 0.91429 0.535011 0.463293
71 1 0.0168367 0.718714 0.330499
251 2 0.126068 0.699014 0.390132
57 1 0.193644 0.782669 0.292026
91 1 0.182849 0.604655 0.465982
212 2 0.251752 0.674697 0.299076
295 2 0.389954 0.699448 0.265815
133 1 0.312188 0.756362 0.393315
321 2 0.510831 0.788135 0.251468
111 1 0.421563 0.605019 0.363973
331 2 0.58141 0.666426 0.33768
386 2 0.457096 0.717818 0.417061
113 1 0.686228 0.635593 0.256534
129 1 0.693457 0.72109 0.384427
344 2 0.797047 0.691307 0.276338
174 2 0.9092 0.77149 0.364364
362 2 0.935088 0.614298 0.298597
306 2 0.818733 0.680475 0.458629
392 2 0.973467 0.668439 0.470433
99 1 0.0933039 0.914922 0.418068
271 2 0.0786676 0.828564 0.3001
178 2 0.193104 0.983494 0.380645
181 2 0.0432456 0.806507 0.485473
190 2 0.0116569 0.983808 0.323522
211 2 0.338337 0.968807 0.260476
373 2 0.203914 0.832039 0.432728
54 1 0.283828 0.888994 0.351196
359 2 0.3984 0.845956 0.374252
301 2 0.585781 0.826446 0.403228
80 1 0.405204 0.963765 0.423415
230 2 0.496159 0.939261 0.317612
162 2 0.718641 0.983953 0.290541
52 1 0.610355 0.951195 0.384024
76 1 0.72891 0.932992 0.431025
395 2 0.726984 0.834973 0.333307
19 1 0.975036 0.871281 0.379359
117 1 0.82869 0.816755 0.257067
149 1 0.816563 0.821007 0.447484
275 2 0.857943 0.923223 0.360581
20 1 0.0417385 0.164245 0.566625
276 2 0.165319 0.0204579 0.733164
187 2 0.198461 0.0661546 0.541477
21 1 0.0729921 0.0482919 0.627362
279 2 0.122242 0.154641 0.684958
28 1 0.236971 0.157527 0.645539
290 2 0.320212 0.0725427 0.634002
87 1 0.406345 0.0409613 0.744404
97 1 0.573468 0.17484 0.60703
231 2 0.480039 0.10275 0.64595
81 1 0.553878 0.0320141 0.546306
89 1 0.742775 0.146719 0.644284
254 2 0.637801 0.0705473 0.653003
244 2 0.67607 0.189758 0.528702
82 1 0.730854 0.0145538 0.578339
179 2 0.832785 0.0606037 0.64759
22 1 0.941274 0.00591817 0.624723
95 1 0.917584 0.160473 0.64905
198 2 0.976849 0.0792377 0.733319
282 2 0.946647 0.0945442 0.520832
252 2 0.826598 0.179114 0.533864
83 1 0.121313 0.287447 0.714922
175 2 0.126764 0.258901 0.561544
74 1 0.0250054 0.352151 0.621926
130 1 0.322605 0.322211 0.578101
137 1 0.371741 0.281809 0.707294
188 2 0.22311 0.36649 0.50781
285 2 0.269434 0.21353 0.519402
288 2 0.242247 0.270971 0.696956
196 2 0.405063 0.217489 0.579134
332 2 0.438073 0.380929 0.659954
372 2 0.533574 0.285742 0.574743
309 2 0.586815 0.3619 0.713117
391 2 0.491576 0.244251 0.745062
134 1 0.665 0.309699 0.600736
368 2 0.772696 0.316872 0.525838
247 2 0.655763 0.224732 0.7133
367 2 0.743403 0.35738 0.710817
84 1 0.872332 0.341006 0.622246
183 2 0.959834 0.259913 0.579589
399 2 0.825875 0.236921 0.700686
180 2 0.999407 0.225981 0.742884
194 2 0.137791 0.406164 0.646848
227 2 0.0865972 0.54564 0.687816
233 2 0.10368 0.502157 0.500608
70 1 0.00318119 0.573672 0.578769
334 2 0.35218 0.469551 0.533068
384 2 0.221826 0.532674 0.590671
335 2 0.28878 0.409387 0.680094
308 2 0.522517 0.429761 0.514471
139 1 0.437065 0.505178 0.630199
327 2 0.560998 0.501407 0.666628
337 2 0.467142 0.58793 0.520755
135 1 0.673405 0.46404 0.717267
336 2 0.611119 0.562996 0.514622
345 2 0.718413 0.572564 0.640018
388 2 0.674884 0.431576 0.561394
143 1 0.79239 0.556174 0.518568
303 2 0.824532 0.460088 0.60907
146 1 0.902473 0.531954 0.741159
225 2 0.96894 0.458714 0.643579
85 1 0.088916 0.671534 0.731532
242 2 0.096621 0.65609 0.558709
248 2 0.0910157 0.789759 0.673011
93 1 0.154411 0.769734 0.546891
310 2 0.346302 0.602539 0.636505
132 1 0.374978 0.678931 0.516321
136 1 0.322664 0.727976 0.666964
240 2 0.25437 0.699137 0.511002
250 2 0.201662 0.667813 0.671441
147 1 0.501816 0.797828 0.512095
330 2 0.570584 0.641335 0.685924
339 2 0.584537 0.704516 0.516484
387 2 0.453383 0.719167 0.629397
128 1 0.705407 0.657899 0.523623
138 1 0.651922 0.729096 0.643999
342 2 0.705733 0.795019 0.512061
343 2 0.773402 0.709345 0.637812
69 1 0.991613 0.709921 0.625474
86 1 0.882691 0.709079 0.7049
173 2 0.897987 0.783472 0.559569
361 2 0.88297 0.60617 0.616279
272 2 0.0353646 0.94107 0.687837
88 1 0.156938 0.894026 0.709537
177 2 0.137919 0.922125 0.559857
77 1 0.24552 0.966114 0.634619
304 2 0.362635 0.812716 0.536585
374 2 0.243688 0.826819 0.635411
360 2 0.358175 0.92622 0.683271
402 2 0.301784 0.944675 0.502937
300 2 0.567721 0.819687 0.651357
78 1 0.419371 0.997887 0.583883
145 1 0.44508 0.848711 0.640336
229 2 0.515059 0.96371 0.688241
237 2 0.49121 0.919494 0.509752
90 1 0.635934 0.951193 0.699937
364 2 0.63562 0.927944 0.544442
394 2 0.708081 0.850774 0.680775
185 2 0.805193 0.91368 0.550887
23 1 0.990191 0.84708 0.614864
141 1 0.818855 0.821337 0.657291
274 2 0.881759 0.917097 0.696583
280 2 0.954235 0.933821 0.507962
1 1 0.0534939 0.0542491 0.991208
24 1 0.0798251 0.113732 0.814104
259 2 0.163577 0.0791107 0.920746
152 2 0.0154006 0.158878 0.93329
29 1 0.223969 0.137207 0.797484
15 1 0.213852 0.180809 0.965402
41 1 0.363354 0.00627696 0.944181
184 2 0.296346 0.0228139 0.813353
270 2 0.31966 0.122655 0.940426
286 2 0.348224 0.169478 0.75736
96 1 0.568014 0.140926 0.756052
192 2 0.467583 0.1167 0.840907
205 2 0.468572 0.0580938 0.992666
236 2 0.59299 0.0344407 0.83145
45 1 0.691841 0.0963065 0.929991
223 2 0.608443 0.184181 0.888626
245 2 0.741504 0.124214 0.798923
26 1 0.86365 0.0191885 0.792363
98 1 0.868398 0.143177 0.792626
5 1 0.942808 0.0783478 0.881419
66 1 0.80245 0.185548 0.922214
171 2 0.827992 0.0677579 0.944242
37 1 0.0171847 0.279444 0.900667
167 2 0.0895491 0.378821 0.941399
283 2 0.132181 0.234688 0.85818
234 2 0.0359715 0.362181 0.776065
169 2 0.377085 0.347661 0.833233
191 2 0.206092 0.373872 0.824986
268 2 0.276496 0.256632 0.881687
65 1 0.414478 0.223855 0.888808
356 2 0.514905 0.310551 0.901646
110 1 0.626318 0.302744 0.841413
221 2 0.743166 0.273985 0.859166
294 2 0.787515 0.395659 0.933966
365 2 0.889609 0.372913 0.767693
397 2 0.899351 0.246085 0.867782
203 2 0.940198 0.379526 0.946653
94 1 0.12484 0.464823 0.794904
63 1 0.0795962 0.512301 0.947435
201 2 0.000475671 0.495382 0.835858
376 2 0.199065 0.492942 0.940544
106 1 0.313214 0.441009 0.900196
299 2 0.375704 0.500874 0.771406
370 2 0.237463 0.533319 0.769217
219 2 0.323733 0.585296 0.919488
312 2 0.55025 0.451266 0.997518
142 1 0.486076 0.55341 0.761567
315 2 0.505416 0.440201 0.824951
125 1 0.42685 0.50468 0.916961
317 2 0.53465 0.583402 0.888071
313 2 0.654768 0.428464 0.866654
326 2 0.764329 0.547315 0.956199
333 2 0.662799 0.577998 0.804769
389 2 0.787074 0.489516 0.783004
104 1 0.639558 0.536489 0.951949
123 1 0.879257 0.463739 0.876144
350 2 0.904498 0.577286 0.929862
92 1 0.181521 0.773142 0.780787
33 1 0.0187137 0.624392 0.91059
182 2 0.0681498 0.738223 0.860747
241 2 0.133111 0.605711 0.849373
217 2 0.207207 0.69547 0.968264
243 2 0.274465 0.688022 0.807045
358 2 0.370388 0.735646 0.943265
64 1 0.264196 0.785789 0.900585
108 1 0.432908 0.637651 0.93186
338 2 0.417537 0.651043 0.783461
340 2 0.531715 0.732666 0.812005
124 1 0.599135 0.78384 0.920722
292 2 0.655178 0.672522 0.952134
341 2 0.680162 0.731088 0.79266
232 2 0.975077 0.635015 0.759852
307 2 0.810134 0.632347 0.792697
324 2 0.804582 0.694426 0.957237
34 1 0.91334 0.711719 0.86564
393 2 0.81883 0.791152 0.805048
277 2 0.961327 0.798268 0.758469
2 1 0.0811186 0.927826 0.97892
25 1 0.0744204 0.864406 0.816356
6 1 0.166255 0.960396 0.869713
189 2 0.040949 0.992757 0.861317
257 2 0.155035 0.839902 0.935331
305 2 0.381359 0.802857 0.775298
42 1 0.349325 0.878286 0.909452
158 2 0.251145 0.966387 0.983754
401 2 0.25299 0.884058 0.806132
144 1 0.494895 0.853192 0.778005
348 2 0.478265 0.832735 0.935077
207 2 0.558883 0.943648 0.986252
238 2 0.443488 0.957359 0.848049
140 1 0.73301 0.880023 0.823424
281 2 0.744328 0.986293 0.751008
186 2 0.702186 0.977288 0.928843
363 2 0.606942 0.880752 0.828228
383 2 0.716284 0.823097 0.953436
27 1 0.955077 0.91521 0.811623
154 2 0.984143 0.852732 0.939221
8 1 0.937647 0.980256 0.957078
126 1 0.862578 0.810121 0.959911
261 2 0.845638 0.921705 0.883546
ITEM: TIMESTEP
200
ITEM: NUMBER OF ATOMS
402
ITEM: BOX BOUNDS pp pp pp
-2.7500000000000000e-02 1.8372499999999999e+01
-2.7500000000000000e-02 1.8372499999999999e+01
-4.2000000000000003e-02 1.4958000000000000e+01
ITEM: ATOMS id type xs ys zs
258 2 0.116782 0.174279 0.0602852
157 2 0.124757 0.00135275 0.0955686
9 1 0.0973805 0.105894 0.176828
13 1 0.181323 0.191375 0.232135
43 1 0.225556 0.0749648 0.0629618
161 2 0.225567 0.0648542 0.215591
269 2 0.260937 0.196928 0.103344
204 2 0.345255 0.0553508 0.110414
53 1 0.310775 0.156977 0.245882
165 2 0.417578 0.17427 0.176677
60 1 0.401849 0.149037 0.0408547
206 2 0.492865 0.00577006 0.159382
61 1 0.534528 0.1247 0.159736
215 2 0.697749 0.122227 0.193746
222 2 0.609482 0.0783555 0.040869
62 1 0.79862 0.125976 0.0958329
220 2 0.712851 0.189016 0.0244195
40 1 0.62798 0.0194526 0.173131
156 2 0.751034 0.00858952 0.0993114
170 2 0.988254 0.0861544 0.114108
264 2 0.84549 0.0587055 0.245078
159 2 0.890922 0.185688 0.166992
7 1 0.878818 0.03592 0.07864
38 1 0.907437 0.159171 0.0114471
14 1 0.153015 0.284199 0.00592896
263 2 0.0421728 0.2195 0.215573
31 1 0.0743876 0.347216 0.0848757
265 2 0.158735 0.308239 0.173627
209 2 0.024834 0.390329 0.209768
103 1 0.33727 0.365028 0.127062
168 2 0.369241 0.26609 0.0246569
266 2 0.298548 0.285427 0.238809
267 2 0.24748 0.358508 0.0173708
297 2 0.585837 0.388201 0.169965
355 2 0.509958 0.201359 0.0181795
380 2 0.452778 0.30755 0.169342
107 1 0.526812 0.331876 0.0531332
214 2 0.600485 0.235389 0.147421
293 2 0.652908 0.323658 0.00664435
353 2 0.740879 0.272038 0.17746
122 1 0.758843 0.369095 0.0855055
151 2 0.988811 0.265948 0.0579575
32 1 0.952612 0.390135 0.0905095
352 2 0.882102 0.334882 0.184667
396 2 0.836695 0.276122 0.0266288
166 2 0.126083 0.458216 0.0900018
208 2 0.0502609 0.563045 0.211543
213 2 0.198383 0.580352 0.160867
55 1 0.130101 0.469358 0.236948
163 2 0.244619 0.428021 0.198318
58 1 0.235736 0.58559 0.0219637
354 2 0.334888 0.555872 0.246178
375 2 0.311882 0.496761 0.0709174
314 2 0.413851 0.403039 0.00328883
298 2 0.438426 0.561382 0.0530519
319 2 0.422375 0.44428 0.194592
118 1 0.522291 0.495347 0.129639
316 2 0.590364 0.591121 0.080419
320 2 0.490652 0.586837 0.235582
318 2 0.63422 0.531336 0.232959
325 2 0.689707 0.468663 0.0757453
379 2 0.732285 0.405173 0.243582
296 2 0.789098 0.538402 0.228355
202 2 0.98932 0.500467 0.047613
349 2 0.846613 0.459511 0.0857576
119 1 0.934673 0.51163 0.189507
200 2 0.0972988 0.615312 0.0352761
35 1 0.0930258 0.741565 0.0173165
160 2 0.0294915 0.71694 0.179559
216 2 0.178409 0.743975 0.144688
47 1 0.127596 0.659057 0.243569
218 2 0.316914 0.664191 0.099343
109 1 0.435477 0.663981 0.133809
377 2 0.42647 0.785341 0.108169
105 1 0.557504 0.689791 0.170699
378 2 0.51277 0.698585 0.0108283
322 2 0.662041 0.747314 0.213197
323 2 0.728205 0.629642 0.112618
116 1 0.714711 0.742481 0.0670019
36 1 0.991418 0.621124 0.101931
153 2 0.966999 0.708531 0.00249415
381 2 0.874352 0.612675 0.110223
260 2 0.841059 0.761266 0.109761
48 1 0.912186 0.714548 0.214285
56 1 0.182775 0.889311 0.0729126
164 2 0.191053 0.901625 0.223715
256 2 0.0705852 0.843854 0.100309
10 1 0.0577594 0.923779 0.206537