LAMMPS (20 Nov 2019)
#---------------------------------------------------------------------#
#---------- Simulation of Ta1Co2 in triclinic (P1) ----#
#-------------------- Writer:: Your Name ----------------------------#
#-------------------- Temperature: 300 Kelvin -----------------------#
#---------------------------------------------------------------------#

#---------------------Define initial value
variable              Temperature equal 300     # 300 K
variable              Pressure    equal 1.01325 # 1.01325 bar
variable              Timestep    equal 0.001   # 0.001 ps=1 fs::Ref[1]

#-----------------------------------------------------------#
#----------------------Initialization-----------------------#
#-----------------------------------------------------------#

#----------------------Define units, atom_style, dimension and boundary
echo                   both
units                  metal
dimension              3
boundary               p p p
atom_style             full

#----------------------Define neighbor Algorithm and neighbor list
neighbor               2.0 bin
neigh_modify           delay 0 every 1 check yes
read_data              CoTa2.data
  orthogonal box = (-0.0275 -0.0275 -0.042) to (18.3725 18.3725 14.958)
  1 by 1 by 1 MPI processor grid
  reading atoms ...
  402 atoms
  0 = max # of 1-2 neighbors
  0 = max # of 1-3 neighbors
  0 = max # of 1-4 neighbors
  1 = max # of special neighbors
  special bonds CPU = 0.000102467 secs
  read_data CPU = 0.00149534 secs

#----------------------Define groups for simulation
group                  Ta  type 1
150 atoms in group Ta
group                  Co  type 2
252 atoms in group Co

#-----------------------------------------------------------------------------------#
#----------------------Setup interaction potentials between ions--------------------#
#-----------------------------------------------------------------------------------#

pair_style             meam
pair_coeff             * * library.meam Ta Co CoTa.meam Ta Co

#--------------------------------------------------------------------------------------#
#----Setting velocity, thermostep, thermo_style, timestep and other necessary setup----#
#--------------------------------------------------------------------------------------#
#---------------------Define thermo_style order to chose thermodynamic variable for save
thermo_style          custom   step  temp   press   ke  pe  etotal

#---------------------Define simulation time step
timestep              ${Timestep} # time_step=0.001ps=1fs :Ref[1]
timestep              0.001 

#-----------------------------------------#
#-------- Minimization protocols ---------#
#-----------------------------------------#
dump                   Min all atom 100 TaCo_min.atom
min_style              cg
thermo 1  # Print every step during minimization
minimize               1e-25 1e-25 10000 10000
Neighbor list info ...
  update every 1 steps, delay 0 steps, check yes
  max neighbors/atom: 2000, page size: 100000
  master list distance cutoff = 7
  ghost atom cutoff = 7
  binsize = 3.5, bins = 6 6 5
  2 neighbor lists, perpetual/occasional/extra = 2 0 0
  (1) pair meam, perpetual
      attributes: full, newton on
      pair build: full/bin
      stencil: full/bin/3d
      bin: standard
  (2) pair meam, perpetual, half/full from (1)
      attributes: half, newton on
      pair build: halffull/newton
      stencil: none
      bin: none
Per MPI rank memory allocation (min/avg/max) = 14.1 | 14.1 | 14.1 Mbytes
Step Temp Press KinEng PotEng TotEng 
       0            0    1447940.4            0    34510.512    34510.512 
       1            0    2327333.7            0     22140.15     22140.15 
       2            0    2580240.5            0    13558.743    13558.743 
       3            0    2513189.8            0    8143.7698    8143.7698 
       4            0    2327295.6            0    4625.3721    4625.3721 
       5            0    2116283.4            0    2332.9928    2332.9928 
       6            0      1926730            0    859.52603    859.52603 
       7            0    1777360.1            0   -62.407504   -62.407504 
       8            0    1671463.7            0   -616.31741   -616.31741 
       9            0    1602438.2            0   -938.84466   -938.84466 
      10            0      1559443            0   -1126.3425   -1126.3425 
      11            0    1530243.6            0    -1249.902    -1249.902 
      12            0    1510067.7            0   -1334.9725   -1334.9725 
      13            0    1495109.1            0   -1400.2752   -1400.2752 
      14            0    1483061.9            0   -1451.4249   -1451.4249 
      15            0    1472195.1            0   -1492.5963   -1492.5963 
      16            0    1465850.3            0   -1513.2634   -1513.2634 
      17            0    1462833.9            0   -1526.5398   -1526.5398 
      18            0    1460942.9            0   -1536.8865   -1536.8865 
      19            0    1462759.8            0   -1542.5281   -1542.5281 
      20            0    1461387.6            0   -1549.8526   -1549.8526 
      21            0    1458433.3            0   -1553.5894   -1553.5894 
      22            0    1458934.8            0   -1557.2086   -1557.2086 
      23            0    1457724.6            0   -1561.6463   -1561.6463 
      24            0    1458938.1            0   -1565.2921   -1565.2921 
      25            0    1456638.1            0   -1569.4416   -1569.4416 
      26            0    1452105.7            0   -1573.2353   -1573.2353 
      27            0    1453012.3            0   -1575.5721   -1575.5721 
      28            0    1452076.4            0   -1576.8593   -1576.8593 
      29            0    1452397.7            0   -1577.7539   -1577.7539 
      30            0    1451376.6            0   -1578.9375   -1578.9375 
      31            0    1450120.2            0   -1580.7637   -1580.7637 
      32            0    1449413.1            0   -1583.2358   -1583.2358 
      33            0    1448942.5            0    -1585.051    -1585.051 
      34            0    1448941.6            0   -1586.4862   -1586.4862 
      35            0    1447532.6            0   -1587.3152   -1587.3152 
      36            0    1447824.8            0    -1587.856    -1587.856 
      37            0    1447400.4            0   -1588.5391   -1588.5391 
      38            0    1447472.7            0   -1589.6287   -1589.6287 
      39            0    1449304.5            0    -1590.513    -1590.513 
      40            0    1449457.6            0   -1591.3835   -1591.3835 
      41            0    1452345.9            0   -1592.1883   -1592.1883 
      42            0      1453618            0   -1592.8485   -1592.8485 
      43            0      1453473            0   -1593.4431   -1593.4431 
      44            0    1452637.6            0   -1593.9238   -1593.9238 
      45            0    1450930.4            0   -1594.2739   -1594.2739 
      46            0    1450320.5            0   -1594.5645   -1594.5645 
      47            0    1449335.1            0    -1594.788    -1594.788 
      48            0    1449125.3            0   -1595.0454   -1595.0454 
      49            0    1447894.2            0   -1595.4139   -1595.4139 
      50            0    1447259.3            0   -1595.8161   -1595.8161 
      51            0    1446011.6            0   -1596.3132   -1596.3132 
      52            0      1446896            0    -1597.288    -1597.288 
      53            0    1446414.9            0   -1598.3365   -1598.3365 
      54            0    1444466.4            0   -1600.0094   -1600.0094 
      55            0    1443391.6            0   -1601.7681   -1601.7681 
      56            0    1443375.4            0    -1603.718    -1603.718 
      57            0    1442131.7            0   -1605.0517   -1605.0517 
      58            0    1442177.9            0   -1606.7335   -1606.7335 
      59            0      1443592            0   -1607.7601   -1607.7601 
      60            0    1443413.6            0   -1608.6853   -1608.6853 
      61            0    1444333.1            0   -1609.7975   -1609.7975 
      62            0    1444252.7            0   -1611.1298   -1611.1298 
      63            0    1443794.4            0   -1612.5289   -1612.5289 
      64            0    1441740.2            0   -1613.8459   -1613.8459 
      65            0    1440874.8            0   -1614.9668   -1614.9668 
      66            0    1440646.1            0   -1615.7781   -1615.7781 
      67            0    1440853.7            0   -1616.2558   -1616.2558 
      68            0    1439757.1            0   -1616.6396   -1616.6396 
      69            0    1438695.2            0   -1617.0132   -1617.0132 
      70            0    1438021.6            0   -1617.2714   -1617.2714 
      71            0    1438103.5            0   -1617.4425   -1617.4425 
      72            0    1438281.2            0   -1617.5452   -1617.5452 
      73            0      1438239            0   -1617.6198   -1617.6198 
      74            0    1438530.4            0   -1617.6729   -1617.6729 
      75            0    1438697.5            0   -1617.7094   -1617.7094 
      76            0    1438971.9            0   -1617.7294   -1617.7294 
      77            0    1438956.6            0   -1617.7383   -1617.7383 
      78            0    1439030.5            0    -1617.744    -1617.744 
      79            0    1439022.1            0   -1617.7473   -1617.7473 
      80            0    1439000.2            0   -1617.7502   -1617.7502 
      81            0    1438944.2            0   -1617.7539   -1617.7539 
      82            0    1439056.1            0    -1617.773    -1617.773 
      83            0    1439003.9            0   -1617.9354   -1617.9354 
      84            0    1438770.1            0   -1618.2088   -1618.2088 
      85            0    1438304.9            0   -1618.6545   -1618.6545 
      86            0    1437815.8            0   -1619.9203   -1619.9203 
      87            0    1438136.9            0   -1622.1346   -1622.1346 
      88            0    1437011.5            0   -1624.0487   -1624.0487 
      89            0    1436720.8            0    -1626.513    -1626.513 
      90            0    1437275.4            0    -1627.399    -1627.399 
      91            0    1436580.2            0   -1630.0874   -1630.0874 
      92            0    1434987.3            0   -1631.9428   -1631.9428 
      93            0    1434268.6            0    -1634.359    -1634.359 
      94            0    1434381.9            0   -1637.5857   -1637.5857 
      95            0    1432840.5            0     -1640.25     -1640.25 
      96            0    1430039.6            0    -1643.951    -1643.951 
      97            0    1429889.3            0   -1645.7861   -1645.7861 
      98            0    1428227.3            0   -1648.2769   -1648.2769 
      99            0    1425564.6            0   -1650.8796   -1650.8796 
     100            0    1424299.3            0   -1653.0905   -1653.0905 
     101            0    1423859.3            0   -1654.9987   -1654.9987 
     102            0    1422344.2            0   -1656.8051   -1656.8051 
     103            0    1420176.9            0   -1658.6787   -1658.6787 
     104            0    1418860.3            0   -1660.4817   -1660.4817 
     105            0    1418105.6            0   -1662.3134   -1662.3134 
     106            0    1416148.5            0   -1664.3889   -1664.3889 
     107            0    1413985.3            0   -1666.2414   -1666.2414 
     108            0    1412206.2            0    -1668.256    -1668.256 
     109            0      1411060            0   -1669.9588   -1669.9588 
     110            0    1408918.9            0   -1671.9694   -1671.9694 
     111            0    1406938.2            0   -1673.5615   -1673.5615 
     112            0    1404181.9            0   -1675.9121   -1675.9121 
     113            0    1402584.8            0   -1677.4753   -1677.4753 
     114            0    1399453.7            0    -1680.032    -1680.032 
     115            0    1397297.4            0   -1681.6392   -1681.6392 
     116            0    1394468.2            0   -1683.8545   -1683.8545 
     117            0    1393135.8            0   -1685.2695   -1685.2695 
     118            0    1389670.7            0   -1687.8791   -1687.8791 
     119            0      1387610            0   -1689.2386   -1689.2386 
     120            0      1383578            0   -1691.9215   -1691.9215 
     121            0    1381944.1            0   -1693.5702   -1693.5702 
     122            0    1379562.1            0   -1695.2794   -1695.2794 
     123            0    1376686.6            0   -1697.6857   -1697.6857 
     124            0    1374372.9            0   -1699.3427   -1699.3427 
     125            0    1372565.5            0   -1701.5105   -1701.5105 
     126            0    1371258.9            0    -1703.175    -1703.175 
     127            0    1369952.8            0    -1705.018    -1705.018 
     128            0      1368501            0   -1706.7716   -1706.7716 
     129            0    1366681.3            0   -1708.9118   -1708.9118 
     130            0    1365320.9            0    -1710.497    -1710.497 
     131            0    1363845.6            0   -1712.5891   -1712.5891 
     132            0      1362261            0     -1714.35     -1714.35 
     133            0    1361178.1            0   -1716.1612   -1716.1612 
     134            0      1359909            0   -1718.0969   -1718.0969 
     135            0    1358741.3            0   -1719.9602   -1719.9602 
     136            0    1357143.8            0    -1721.617    -1721.617 
     137            0    1355912.8            0   -1723.3186   -1723.3186 
     138            0    1354298.9            0   -1724.4117   -1724.4117 
     139            0      1352564            0   -1726.0446   -1726.0446 
     140            0    1351280.5            0   -1727.1864   -1727.1864 
     141            0    1349643.1            0    -1728.449    -1728.449 
     142            0    1348800.2            0   -1729.3745   -1729.3745 
     143            0    1347856.3            0   -1730.2575   -1730.2575 
     144            0    1346269.8            0   -1731.6053   -1731.6053 
     145            0      1345354            0   -1732.4328   -1732.4328 
     146            0    1344144.3            0   -1733.1123   -1733.1123 
     147            0    1342813.2            0   -1734.2842   -1734.2842 
     148            0    1341678.5            0   -1735.7037   -1735.7037 
     149            0    1341566.4            0   -1736.5903   -1736.5903 
     150            0    1341289.7            0   -1737.3418   -1737.3418 
     151            0    1340434.8            0   -1738.2526   -1738.2526 
     152            0    1339724.4            0   -1739.2279   -1739.2279 
     153            0    1338937.7            0   -1740.0467   -1740.0467 
     154            0    1338154.2            0    -1740.881    -1740.881 
     155            0    1337566.4            0   -1741.5758   -1741.5758 
     156            0    1337166.7            0   -1742.0171   -1742.0171 
     157            0    1336696.5            0   -1742.4352   -1742.4352 
     158            0    1335896.9            0   -1742.8465   -1742.8465 
     159            0    1335034.9            0   -1743.2845   -1743.2845 
     160            0      1334264            0   -1743.7436   -1743.7436 
     161            0    1333800.4            0   -1744.2872   -1744.2872 
     162            0    1333107.6            0   -1744.8886   -1744.8886 
     163            0    1332738.6            0   -1745.4326   -1745.4326 
     164            0    1332334.4            0   -1745.8337   -1745.8337 
     165            0    1332389.7            0    -1746.347    -1746.347 
     166            0    1332325.6            0   -1746.8308   -1746.8308 
     167            0    1332420.5            0   -1747.3008   -1747.3008 
     168            0    1332265.6            0   -1747.7838   -1747.7838 
     169            0    1332207.5            0   -1748.3393   -1748.3393 
     170            0    1332148.7            0   -1748.8976   -1748.8976 
     171            0    1332160.9            0   -1749.3521   -1749.3521 
     172            0    1332112.8            0   -1749.7439   -1749.7439 
     173            0    1332106.8            0   -1750.1691   -1750.1691 
     174            0    1332050.5            0    -1750.423    -1750.423 
     175            0    1331415.9            0   -1750.9958   -1750.9958 
     176            0    1331230.8            0   -1751.3509   -1751.3509 
     177            0    1330959.5            0   -1751.6709   -1751.6709 
     178            0    1330360.1            0   -1752.0156   -1752.0156 
     179            0    1330035.4            0   -1752.2464   -1752.2464 
     180            0    1329958.4            0   -1752.4386   -1752.4386 
     181            0    1330013.2            0   -1752.6402   -1752.6402 
     182            0    1330355.1            0    -1752.845    -1752.845 
     183            0    1330608.1            0   -1753.0473   -1753.0473 
     184            0    1330868.6            0   -1753.2578   -1753.2578 
     185            0    1331284.5            0   -1753.5438   -1753.5438 
     186            0      1331913            0   -1753.8248   -1753.8248 
     187            0    1332479.7            0   -1754.1051   -1754.1051 
     188            0    1333021.4            0   -1754.4182   -1754.4182 
     189            0    1333518.6            0   -1754.7606   -1754.7606 
     190            0    1333612.8            0   -1755.0569   -1755.0569 
     191            0      1333781            0   -1755.3189   -1755.3189 
     192            0    1333868.3            0   -1755.5504   -1755.5504 
     193            0    1334021.6            0   -1755.8289   -1755.8289 
     194            0    1334362.4            0   -1756.1092   -1756.1092 
     195            0      1334509            0   -1756.3927   -1756.3927 
     196            0    1334502.1            0   -1756.6843   -1756.6843 
     197            0    1334366.1            0   -1756.9778   -1756.9778 
     198            0    1334160.3            0   -1757.2526   -1757.2526 
     199            0      1333718            0   -1757.4539   -1757.4539 
     200            0      1333350            0   -1757.6481   -1757.6481 
     201            0    1332888.2            0   -1757.8547   -1757.8547 
     202            0    1332635.3            0   -1758.0381   -1758.0381 
     203            0    1332591.1            0   -1758.1893   -1758.1893 
     204            0    1332462.4            0   -1758.3207   -1758.3207 
     205            0    1332479.1            0   -1758.4514   -1758.4514 
     206            0    1332538.3            0   -1758.5819   -1758.5819 
     207            0    1332553.6            0    -1758.716    -1758.716 
     208            0    1332535.7            0   -1758.8433   -1758.8433 
     209            0    1332406.3            0   -1758.9779   -1758.9779 
     210            0    1332232.1            0   -1759.1123   -1759.1123 
     211            0    1332098.6            0   -1759.2486   -1759.2486 
     212            0    1331967.3            0   -1759.3915   -1759.3915 
     213            0    1331798.5            0   -1759.5429   -1759.5429 
     214            0    1331731.8            0   -1759.6972   -1759.6972 
     215            0    1331506.5            0   -1759.8574   -1759.8574 
     216            0    1331125.5            0   -1760.0114   -1760.0114 
     217            0    1330430.4            0   -1760.1746   -1760.1746 
     218            0    1329709.4            0    -1760.327    -1760.327 
     219            0    1328838.3            0   -1760.4773   -1760.4773 
     220            0    1328139.1            0   -1760.6097   -1760.6097 
     221            0    1327463.1            0   -1760.7331   -1760.7331 
     222            0    1327175.3            0   -1760.8406   -1760.8406 
     223            0    1326860.6            0    -1760.944    -1760.944 
     224            0    1326773.6            0   -1761.0427   -1761.0427 
     225            0    1326761.2            0   -1761.1342   -1761.1342 
     226            0    1326832.2            0   -1761.2127   -1761.2127 
     227            0      1326928            0   -1761.2861   -1761.2861 
     228            0    1326969.2            0   -1761.3562   -1761.3562 
     229            0    1326984.1            0   -1761.4283   -1761.4283 
     230            0    1326934.9            0   -1761.5011   -1761.5011 
     231            0    1326877.9            0   -1761.5866   -1761.5866 
     232            0    1326786.8            0   -1761.6929   -1761.6929 
     233            0    1326797.7            0   -1761.8192   -1761.8192 
     234            0    1326960.4            0   -1761.9704   -1761.9704 
     235            0    1327158.9            0   -1762.1502   -1762.1502 
     236            0      1327336            0   -1762.3409   -1762.3409 
     237            0    1327374.6            0   -1762.5332   -1762.5332 
     238            0    1327327.6            0   -1762.6834   -1762.6834 
     239            0    1327254.9            0   -1762.8391   -1762.8391 
     240            0    1327118.8            0   -1762.9583   -1762.9583 
     241            0    1327082.6            0   -1763.0703   -1763.0703 
     242            0      1327008            0   -1763.1585   -1763.1585 
     243            0    1327022.3            0   -1763.2415   -1763.2415 
     244            0    1326947.4            0   -1763.3185   -1763.3185 
     245            0    1326762.2            0   -1763.4038   -1763.4038 
     246            0    1326501.7            0   -1763.4805   -1763.4805 
     247            0    1326173.8            0   -1763.5685   -1763.5685 
     248            0    1325820.1            0   -1763.6499   -1763.6499 
     249            0    1325403.1            0   -1763.7499   -1763.7499 
     250            0    1325051.5            0   -1763.8442   -1763.8442 
     251            0    1324836.2            0   -1763.9414   -1763.9414 
     252            0    1324727.3            0   -1764.0373   -1764.0373 
     253            0      1324719            0   -1764.1253   -1764.1253 
     254            0    1324668.6            0   -1764.2115   -1764.2115 
     255            0    1324602.3            0   -1764.2899   -1764.2899 
     256            0    1324534.9            0   -1764.3685   -1764.3685 
     257            0    1324436.1            0   -1764.4471   -1764.4471 
     258            0    1324347.6            0   -1764.5285   -1764.5285 
     259            0    1324256.5            0   -1764.6103   -1764.6103 
     260            0    1324207.7            0   -1764.7012   -1764.7012 
     261            0    1324119.3            0   -1764.8067   -1764.8067 
     262            0    1324077.3            0   -1764.9232   -1764.9232 
     263            0    1324105.5            0   -1765.0581   -1765.0581 
     264            0    1324190.2            0   -1765.1737   -1765.1737 
     265            0      1324365            0   -1765.3115   -1765.3115 
     266            0    1324550.2            0   -1765.4269   -1765.4269 
     267            0    1324785.2            0   -1765.5778   -1765.5778 
     268            0    1324906.8            0   -1765.7042   -1765.7042 
     269            0    1325065.3            0   -1765.8427   -1765.8427 
     270            0    1325246.3            0   -1765.9494   -1765.9494 
     271            0    1325510.3            0   -1766.0542   -1766.0542 
     272            0      1325726            0   -1766.1365   -1766.1365 
     273            0    1326012.7            0   -1766.2116   -1766.2116 
     274            0    1326236.8            0   -1766.2719   -1766.2719 
     275            0    1326485.9            0   -1766.3312   -1766.3312 
     276            0    1326643.2            0   -1766.3862   -1766.3862 
     277            0    1326772.3            0   -1766.4522   -1766.4522 
     278            0    1326760.3            0   -1766.5355   -1766.5355 
     279            0    1326575.8            0   -1766.6315   -1766.6315 
     280            0    1326274.9            0   -1766.7279   -1766.7279 
     281            0    1325885.3            0   -1766.8286   -1766.8286 
     282            0    1325538.3            0   -1766.9241   -1766.9241 
     283            0    1325238.9            0    -1767.008    -1767.008 
     284            0    1324957.4            0   -1767.0949   -1767.0949 
     285            0    1324741.3            0   -1767.1709   -1767.1709 
     286            0    1324582.3            0   -1767.2468   -1767.2468 
     287            0    1324497.7            0   -1767.3138   -1767.3138 
     288            0    1324485.7            0   -1767.3722   -1767.3722 
     289            0    1324532.7            0   -1767.4273   -1767.4273 
     290            0    1324613.2            0   -1767.4688   -1767.4688 
     291            0      1324638            0     -1767.51     -1767.51 
     292            0      1324634            0   -1767.5395   -1767.5395 
     293            0    1324524.3            0    -1767.569    -1767.569 
     294            0    1324412.8            0   -1767.5949   -1767.5949 
     295            0    1324218.3            0   -1767.6204   -1767.6204 
     296            0    1324024.4            0   -1767.6479   -1767.6479 
     297            0    1323756.7            0   -1767.6761   -1767.6761 
     298            0    1323489.1            0   -1767.7078   -1767.7078 
     299            0    1323207.4            0    -1767.738    -1767.738 
     300            0    1323055.1            0   -1767.7669   -1767.7669 
     301            0    1322920.4            0   -1767.7947   -1767.7947 
     302            0    1322891.9            0   -1767.8207   -1767.8207 
     303            0      1322850            0   -1767.8448   -1767.8448 
     304            0    1322899.8            0   -1767.8664   -1767.8664 
     305            0      1322882            0   -1767.8852   -1767.8852 
     306            0    1322883.5            0   -1767.9021   -1767.9021 
     307            0    1322863.6            0   -1767.9176   -1767.9176 
     308            0    1322928.3            0   -1767.9337   -1767.9337 
     309            0    1323004.7            0    -1767.949    -1767.949 
     310            0    1323199.7            0   -1767.9653   -1767.9653 
     311            0    1323449.9            0   -1767.9828   -1767.9828 
     312            0    1323825.1            0   -1768.0053   -1768.0053 
     313            0    1324195.4            0   -1768.0329   -1768.0329 
     314            0    1324573.8            0   -1768.0684   -1768.0684 
     315            0    1324817.3            0   -1768.1083   -1768.1083 
     316            0    1324941.6            0   -1768.1526   -1768.1526 
     317            0    1324912.6            0   -1768.2037   -1768.2037 
     318            0    1324831.2            0   -1768.2577   -1768.2577 
     319            0    1324690.6            0   -1768.3085   -1768.3085 
     320            0    1324630.5            0   -1768.3564   -1768.3564 
     321            0    1324575.9            0   -1768.4039   -1768.4039 
     322            0    1324604.5            0   -1768.4551   -1768.4551 
     323            0    1324550.1            0    -1768.509    -1768.509 
     324            0    1324505.3            0   -1768.5649   -1768.5649 
     325            0    1324371.7            0   -1768.6232   -1768.6232 
     326            0    1324280.4            0   -1768.6797   -1768.6797 
     327            0    1324113.4            0    -1768.733    -1768.733 
     328            0    1323987.1            0   -1768.7874   -1768.7874 
     329            0    1323834.4            0   -1768.8342   -1768.8342 
     330            0    1323767.9            0   -1768.8843   -1768.8843 
     331            0    1323658.8            0   -1768.9271   -1768.9271 
     332            0    1323556.4            0   -1768.9723   -1768.9723 
     333            0    1323354.8            0   -1769.0103   -1769.0103 
     334            0      1323088            0   -1769.0522   -1769.0522 
     335            0    1322762.4            0   -1769.0886   -1769.0886 
     336            0    1322438.5            0   -1769.1308   -1769.1308 
     337            0    1322152.5            0   -1769.1734   -1769.1734 
     338            0    1321976.6            0   -1769.2242   -1769.2242 
     339            0    1321830.4            0   -1769.2749   -1769.2749 
     340            0      1321794            0   -1769.3328   -1769.3328 
     341            0    1321761.3            0   -1769.3883   -1769.3883 
     342            0    1321805.6            0   -1769.4531   -1769.4531 
     343            0    1321735.3            0    -1769.506    -1769.506 
     344            0    1321643.9            0   -1769.5651   -1769.5651 
     345            0    1321488.5            0   -1769.6076   -1769.6076 
     346            0    1321340.8            0   -1769.6519   -1769.6519 
     347            0    1321178.6            0   -1769.6832   -1769.6832 
     348            0    1321134.8            0   -1769.7164   -1769.7164 
     349            0    1321142.4            0    -1769.743    -1769.743 
     350            0    1321300.8            0   -1769.7668   -1769.7668 
     351            0    1321448.6            0   -1769.7877   -1769.7877 
     352            0      1321629            0    -1769.806    -1769.806 
     353            0    1321817.1            0    -1769.825    -1769.825 
     354            0    1321984.8            0   -1769.8401   -1769.8401 
     355            0    1322098.5            0   -1769.8556   -1769.8556 
     356            0    1322162.6            0   -1769.8675   -1769.8675 
     357            0    1322191.4            0   -1769.8806   -1769.8806 
     358            0    1322202.6            0   -1769.8933   -1769.8933 
     359            0    1322173.1            0   -1769.9067   -1769.9067 
     360            0    1322112.2            0   -1769.9218   -1769.9218 
     361            0    1322068.6            0   -1769.9358   -1769.9358 
     362            0    1322016.7            0    -1769.953    -1769.953 
     363            0    1322023.8            0   -1769.9706   -1769.9706 
     364            0    1322062.8            0    -1769.989    -1769.989 
     365            0    1322215.8            0   -1770.0089   -1770.0089 
     366            0    1322399.2            0   -1770.0308   -1770.0308 
     367            0    1322663.7            0   -1770.0593   -1770.0593 
     368            0    1323015.2            0   -1770.1043   -1770.1043 
     369            0    1323262.8            0   -1770.1464   -1770.1464 
     370            0    1323386.7            0   -1770.2217   -1770.2217 
     371            0    1323510.9            0   -1770.2722   -1770.2722 
     372            0    1323656.7            0   -1770.3273   -1770.3273 
     373            0    1323693.1            0   -1770.3805   -1770.3805 
     374            0    1323664.8            0   -1770.4171   -1770.4171 
     375            0    1323692.4            0   -1770.4494   -1770.4494 
     376            0    1323689.2            0    -1770.479    -1770.479 
     377            0      1323687            0   -1770.4971   -1770.4971 
     378            0    1323720.1            0   -1770.5167   -1770.5167 
     379            0    1323766.7            0   -1770.5302   -1770.5302 
     380            0    1323798.1            0   -1770.5404   -1770.5404 
     381            0    1323829.4            0   -1770.5493   -1770.5493 
     382            0    1323866.1            0   -1770.5557   -1770.5557 
     383            0    1323897.2            0   -1770.5604   -1770.5604 
     384            0    1323916.8            0   -1770.5646   -1770.5646 
     385            0    1323928.5            0    -1770.568    -1770.568 
     386            0    1323953.2            0   -1770.5708   -1770.5708 
     387            0    1323971.8            0   -1770.5737   -1770.5737 
     388            0    1323983.1            0   -1770.5765   -1770.5765 
     389            0    1323990.9            0   -1770.5791   -1770.5791 
     390            0    1324014.7            0   -1770.5819   -1770.5819 
     391            0    1324020.3            0   -1770.5845   -1770.5845 
     392            0      1324020            0   -1770.5872   -1770.5872 
     393            0    1324005.7            0   -1770.5903   -1770.5903 
     394            0    1324008.1            0   -1770.5939   -1770.5939 
     395            0    1324018.4            0   -1770.5979   -1770.5979 
     396            0    1324052.1            0   -1770.6022   -1770.6022 
     397            0    1324100.6            0   -1770.6068   -1770.6068 
     398            0    1324169.4            0   -1770.6114   -1770.6114 
     399            0      1324219            0   -1770.6163   -1770.6163 
     400            0    1324261.9            0   -1770.6216   -1770.6216 
     401            0    1324285.6            0   -1770.6274   -1770.6274 
     402            0    1324289.1            0   -1770.6344   -1770.6344 
     403            0    1324233.1            0   -1770.6433   -1770.6433 
     404            0    1324163.9            0   -1770.6548   -1770.6548 
     405            0    1324078.4            0    -1770.672    -1770.672 
     406            0    1323980.7            0   -1770.6931   -1770.6931 
     407            0    1323895.3            0   -1770.7242   -1770.7242 
     408            0    1323869.2            0   -1770.7607   -1770.7607 
     409            0    1323837.1            0   -1770.8088   -1770.8088 
     410            0      1323821            0   -1770.8501   -1770.8501 
     411            0    1323800.5            0   -1770.8954   -1770.8954 
     412            0      1323794            0   -1770.9313   -1770.9313 
     413            0      1323716            0   -1770.9662   -1770.9662 
     414            0    1323609.4            0   -1771.0002   -1771.0002 
     415            0    1323429.8            0   -1771.0309   -1771.0309 
     416            0    1323267.6            0   -1771.0687   -1771.0687 
     417            0    1323090.4            0   -1771.1056   -1771.1056 
     418            0    1322958.3            0   -1771.1427   -1771.1427 
     419            0    1322833.7            0   -1771.1818   -1771.1818 
     420            0    1322814.4            0   -1771.2184   -1771.2184 
     421            0    1322735.7            0   -1771.2599   -1771.2599 
     422            0    1322672.7            0   -1771.3017   -1771.3017 
     423            0    1322621.3            0   -1771.3448   -1771.3448 
     424            0    1322637.8            0   -1771.3877   -1771.3877 
     425            0    1322634.3            0   -1771.4284   -1771.4284 
     426            0    1322666.4            0    -1771.465    -1771.465 
     427            0    1322651.1            0   -1771.4981   -1771.4981 
     428            0    1322646.9            0   -1771.5282   -1771.5282 
     429            0    1322629.8            0   -1771.5565   -1771.5565 
     430            0    1322667.3            0   -1771.5836   -1771.5836 
     431            0    1322721.7            0   -1771.6075   -1771.6075 
     432            0    1322803.4            0   -1771.6315   -1771.6315 
     433            0    1322898.6            0   -1771.6518   -1771.6518 
     434            0    1322938.8            0   -1771.6715   -1771.6715 
     435            0    1322951.8            0   -1771.6882   -1771.6882 
     436            0    1322869.8            0   -1771.7043   -1771.7043 
     437            0    1322756.5            0   -1771.7205   -1771.7205 
     438            0    1322552.5            0   -1771.7367   -1771.7367 
     439            0    1322348.8            0   -1771.7541   -1771.7541 
     440            0    1322078.7            0   -1771.7736   -1771.7736 
     441            0    1321822.5            0   -1771.7964   -1771.7964 
     442            0      1321588            0   -1771.8211   -1771.8211 
     443            0    1321497.3            0   -1771.8472   -1771.8472 
     444            0    1321438.7            0   -1771.8726   -1771.8726 
     445            0    1321415.2            0   -1771.8954   -1771.8954 
     446            0    1321370.3            0    -1771.915    -1771.915 
     447            0      1321351            0    -1771.931    -1771.931 
     448            0    1321319.1            0   -1771.9443   -1771.9443 
     449            0    1321298.5            0   -1771.9564   -1771.9564 
     450            0    1321297.6            0    -1771.968    -1771.968 
     451            0    1321358.2            0   -1771.9795   -1771.9795 
     452            0    1321433.3            0   -1771.9904   -1771.9904 
     453            0    1321508.6            0   -1772.0005   -1772.0005 
     454            0      1321543            0   -1772.0095   -1772.0095 
     455            0    1321587.5            0   -1772.0176   -1772.0176 
     456            0    1321592.3            0   -1772.0243   -1772.0243 
     457            0    1321593.5            0   -1772.0303   -1772.0303 
     458            0    1321575.1            0   -1772.0359   -1772.0359 
     459            0    1321566.7            0   -1772.0412   -1772.0412 
     460            0    1321525.4            0   -1772.0463   -1772.0463 
     461            0    1321482.6            0    -1772.051    -1772.051 
     462            0    1321430.6            0   -1772.0555   -1772.0555 
     463            0      1321389            0   -1772.0598   -1772.0598 
     464            0    1321341.6            0   -1772.0639   -1772.0639 
     465            0    1321315.4            0   -1772.0679   -1772.0679 
     466            0    1321306.8            0   -1772.0717   -1772.0717 
     467            0    1321329.5            0   -1772.0756   -1772.0756 
     468            0    1321371.9            0   -1772.0795   -1772.0795 
     469            0      1321450            0   -1772.0838   -1772.0838 
     470            0    1321519.5            0   -1772.0886   -1772.0886 
     471            0    1321598.6            0   -1772.0945   -1772.0945 
     472            0    1321652.5            0   -1772.1012   -1772.1012 
     473            0    1321718.4            0   -1772.1102   -1772.1102 
     474            0    1321730.5            0   -1772.1212   -1772.1212 
     475            0    1321724.6            0   -1772.1388   -1772.1388 
     476            0    1321666.4            0   -1772.1641   -1772.1641 
     477            0    1321630.6            0   -1772.1998   -1772.1998 
     478            0    1321564.6            0   -1772.2271   -1772.2271 
     479            0    1321534.9            0   -1772.2628   -1772.2628 
     480            0    1321472.4            0   -1772.2917   -1772.2917 
     481            0    1321436.9            0   -1772.3236   -1772.3236 
     482            0    1321360.3            0   -1772.3514   -1772.3514 
     483            0    1321339.4            0   -1772.3754   -1772.3754 
     484            0    1321301.7            0   -1772.3975   -1772.3975 
     485            0    1321289.2            0    -1772.413    -1772.413 
     486            0    1321224.5            0   -1772.4274   -1772.4274 
     487            0    1321206.6            0   -1772.4383   -1772.4383 
     488            0    1321166.5            0   -1772.4484   -1772.4484 
     489            0      1321160            0   -1772.4575   -1772.4575 
     490            0    1321146.2            0   -1772.4667   -1772.4667 
     491            0    1321182.5            0   -1772.4759   -1772.4759 
     492            0    1321204.2            0   -1772.4862   -1772.4862 
     493            0    1321245.4            0   -1772.4967   -1772.4967 
     494            0    1321264.3            0   -1772.5107   -1772.5107 
     495            0    1321326.4            0   -1772.5273   -1772.5273 
     496            0    1321377.5            0   -1772.5522   -1772.5522 
     497            0    1321453.1            0   -1772.5925   -1772.5925 
     498            0    1321460.3            0   -1772.6718   -1772.6718 
     499            0    1321476.7            0   -1772.8117   -1772.8117 
     500            0    1321413.7            0   -1772.9292   -1772.9292 
     501            0    1321315.8            0   -1773.0002   -1773.0002 
     502            0    1321280.1            0   -1773.0645   -1773.0645 
     503            0    1321112.9            0   -1773.1735   -1773.1735 
     504            0    1321047.8            0   -1773.2537   -1773.2537 
     505            0    1320888.1            0   -1773.3203   -1773.3203 
     506            0    1320531.2            0   -1773.3805   -1773.3805 
     507            0    1320284.2            0   -1773.4298   -1773.4298 
     508            0    1320069.6            0   -1773.4631   -1773.4631 
     509            0    1320001.7            0   -1773.4875   -1773.4875 
     510            0    1319969.5            0   -1773.5086   -1773.5086 
     511            0      1319917            0   -1773.5273   -1773.5273 
     512            0    1319921.6            0   -1773.5437   -1773.5437 
     513            0    1319947.3            0   -1773.5586   -1773.5586 
     514            0    1320005.6            0   -1773.5705   -1773.5705 
     515            0    1320026.4            0   -1773.5814   -1773.5814 
     516            0    1320087.2            0   -1773.5913   -1773.5913 
     517            0    1320132.5            0   -1773.5993   -1773.5993 
     518            0    1320155.1            0   -1773.6055   -1773.6055 
     519            0    1320155.9            0   -1773.6101   -1773.6101 
     520            0    1320159.7            0   -1773.6134   -1773.6134 
     521            0    1320158.9            0    -1773.616    -1773.616 
     522            0    1320145.9            0    -1773.618    -1773.618 
     523            0    1320128.3            0   -1773.6194   -1773.6194 
     524            0    1320123.3            0   -1773.6206   -1773.6206 
     525            0    1320130.5            0   -1773.6216   -1773.6216 
     526            0    1320134.4            0   -1773.6223   -1773.6223 
     527            0    1320131.4            0   -1773.6229   -1773.6229 
     528            0    1320127.7            0   -1773.6234   -1773.6234 
     529            0    1320108.8            0   -1773.6238   -1773.6238 
     530            0    1320099.4            0   -1773.6241   -1773.6241 
     531            0    1320080.1            0   -1773.6245   -1773.6245 
     532            0    1320076.7            0   -1773.6247   -1773.6247 
     533            0    1320067.5            0    -1773.625    -1773.625 
     534            0    1320071.7            0   -1773.6253   -1773.6253 
     535            0      1320082            0   -1773.6255   -1773.6255 
     536            0    1320092.2            0   -1773.6257   -1773.6257 
     537            0    1320097.7            0   -1773.6259   -1773.6259 
     538            0    1320101.2            0    -1773.626    -1773.626 
     539            0    1320107.2            0   -1773.6262   -1773.6262 
     540            0    1320114.1            0   -1773.6263   -1773.6263 
     541            0    1320122.6            0   -1773.6264   -1773.6264 
     542            0    1320131.5            0   -1773.6265   -1773.6265 
     543            0    1320139.6            0   -1773.6266   -1773.6266 
     544            0    1320139.9            0   -1773.6267   -1773.6267 
     545            0    1320136.9            0   -1773.6269   -1773.6269 
     546            0    1320136.2            0    -1773.627    -1773.627 
     547            0    1320132.8            0   -1773.6271   -1773.6271 
     548            0    1320130.7            0   -1773.6272   -1773.6272 
     549            0    1320125.3            0   -1773.6273   -1773.6273 
     550            0    1320121.1            0   -1773.6274   -1773.6274 
     551            0    1320116.1            0   -1773.6276   -1773.6276 
     552            0    1320114.3            0   -1773.6277   -1773.6277 
     553            0    1320115.2            0   -1773.6279   -1773.6279 
     554            0    1320122.1            0   -1773.6282   -1773.6282 
     555            0    1320123.3            0   -1773.6286   -1773.6286 
     556            0    1320127.7            0   -1773.6294   -1773.6294 
     557            0    1320134.9            0   -1773.6312   -1773.6312 
     558            0    1320145.1            0   -1773.6353   -1773.6353 
     559            0    1320153.6            0   -1773.6415   -1773.6415 
     560            0    1320136.4            0    -1773.653    -1773.653 
     561            0    1320107.6            0   -1773.6657   -1773.6657 
     562            0    1320120.8            0   -1773.6972   -1773.6972 
     563            0    1320106.2            0   -1773.7307   -1773.7307 
     564            0      1320044            0   -1773.7697   -1773.7697 
     565            0    1319965.2            0   -1773.8252   -1773.8252 
     566            0    1320008.2            0   -1773.8573   -1773.8573 
     567            0    1320035.7            0   -1773.8848   -1773.8848 
     568            0    1320065.8            0   -1773.9102   -1773.9102 
     569            0    1320051.8            0   -1773.9326   -1773.9326 
     570            0    1320037.9            0   -1773.9528   -1773.9528 
     571            0    1320004.8            0   -1773.9719   -1773.9719 
     572            0    1319903.3            0   -1773.9921   -1773.9921 
     573            0    1319834.9            0   -1774.0188   -1774.0188 
     574            0    1319651.3            0   -1774.0556   -1774.0556 
     575            0    1319650.9            0   -1774.0995   -1774.0995 
     576            0    1319751.9            0   -1774.1415   -1774.1415 
     577            0    1319914.5            0   -1774.1836   -1774.1836 
     578            0      1319930            0   -1774.2223   -1774.2223 
     579            0    1319997.2            0   -1774.2538   -1774.2538 
     580            0    1319935.1            0   -1774.2805   -1774.2805 
     581            0    1319976.1            0    -1774.305    -1774.305 
     582            0      1319932            0   -1774.3271   -1774.3271 
     583            0    1319952.3            0   -1774.3488   -1774.3488 
     584            0    1319938.1            0   -1774.3708   -1774.3708 
     585            0    1319968.1            0   -1774.3927   -1774.3927 
     586            0      1319966            0   -1774.4133   -1774.4133 
     587            0    1319950.4            0   -1774.4325   -1774.4325 
     588            0      1319860            0   -1774.4511   -1774.4511 
     589            0    1319808.6            0   -1774.4674   -1774.4674 
     590            0    1319714.8            0   -1774.4824   -1774.4824 
     591            0    1319702.2            0   -1774.4965   -1774.4965 
     592            0    1319677.3            0   -1774.5089   -1774.5089 
     593            0    1319752.8            0   -1774.5201   -1774.5201 
     594            0    1319803.4            0   -1774.5301   -1774.5301 
     595            0    1319924.7            0   -1774.5399   -1774.5399 
     596            0    1320047.5            0   -1774.5499   -1774.5499 
     597            0    1320184.3            0   -1774.5593   -1774.5593 
     598            0    1320231.2            0   -1774.5676   -1774.5676 
     599            0    1320292.7            0   -1774.5745   -1774.5745 
     600            0      1320311            0   -1774.5801   -1774.5801 
     601            0    1320367.2            0   -1774.5849   -1774.5849 
     602            0    1320391.3            0    -1774.589    -1774.589 
     603            0    1320433.3            0   -1774.5926   -1774.5926 
     604            0      1320443            0   -1774.5961   -1774.5961 
     605            0    1320449.7            0      -1774.6      -1774.6 
     606            0    1320393.6            0   -1774.6046   -1774.6046 
     607            0    1320324.3            0   -1774.6106   -1774.6106 
     608            0    1320189.8            0   -1774.6185   -1774.6185 
     609            0    1320080.7            0   -1774.6291   -1774.6291 
     610            0    1319891.5            0    -1774.643    -1774.643 
     611            0    1319658.6            0    -1774.661    -1774.661 
     612            0    1319215.5            0   -1774.6838   -1774.6838 
     613            0    1318709.4            0   -1774.7094   -1774.7094 
     614            0    1318042.5            0   -1774.7403   -1774.7403 
     615            0    1317532.6            0   -1774.7705   -1774.7705 
     616            0    1317038.2            0   -1774.8012   -1774.8012 
     617            0    1316793.2            0   -1774.8267   -1774.8267 
     618            0    1316586.6            0   -1774.8505   -1774.8505 
     619            0    1316555.3            0   -1774.8712   -1774.8712 
     620            0    1316512.7            0   -1774.8912   -1774.8912 
     621            0    1316617.4            0   -1774.9099   -1774.9099 
     622            0      1316652            0   -1774.9301   -1774.9301 
     623            0      1316752            0   -1774.9539   -1774.9539 
     624            0    1316785.5            0   -1774.9818   -1774.9818 
     625            0    1316911.3            0   -1775.0145   -1775.0145 
     626            0    1316891.6            0   -1775.0446   -1775.0446 
     627            0    1316832.3            0   -1775.0826   -1775.0826 
     628            0      1316641            0   -1775.1191   -1775.1191 
     629            0    1316440.8            0   -1775.1708   -1775.1708 
     630            0    1316020.6            0   -1775.2266   -1775.2266 
     631            0    1315670.3            0   -1775.2998   -1775.2998 
     632            0    1315353.9            0   -1775.3609   -1775.3609 
     633            0    1315246.2            0   -1775.4237   -1775.4237 
     634            0    1315007.6            0    -1775.483    -1775.483 
     635            0      1314945            0   -1775.5319   -1775.5319 
     636            0      1314878            0     -1775.58     -1775.58 
     637            0    1314991.2            0   -1775.6172   -1775.6172 
     638            0    1315011.1            0   -1775.6543   -1775.6543 
     639            0    1315088.9            0   -1775.6856   -1775.6856 
     640            0    1315073.5            0   -1775.7115   -1775.7115 
     641            0    1315122.4            0   -1775.7331   -1775.7331 
     642            0    1315074.7            0   -1775.7506   -1775.7506 
     643            0    1315100.1            0   -1775.7664   -1775.7664 
     644            0    1315089.6            0   -1775.7819   -1775.7819 
     645            0    1315167.3            0   -1775.7956   -1775.7956 
     646            0    1315153.5            0    -1775.809    -1775.809 
     647            0    1315153.4            0   -1775.8208   -1775.8208 
     648            0    1315090.2            0   -1775.8314   -1775.8314 
     649            0    1315067.7            0   -1775.8416   -1775.8416 
     650            0    1314988.4            0   -1775.8504   -1775.8504 
     651            0    1314961.3            0    -1775.859    -1775.859 
     652            0    1314908.8            0   -1775.8669   -1775.8669 
     653            0    1314919.2            0   -1775.8739   -1775.8739 
     654            0    1314881.7            0   -1775.8814   -1775.8814 
     655            0    1314892.1            0   -1775.8888   -1775.8888 
     656            0    1314843.6            0   -1775.8974   -1775.8974 
     657            0    1314828.9            0   -1775.9063   -1775.9063 
     658            0    1314745.8            0   -1775.9173   -1775.9173 
     659            0    1314678.8            0   -1775.9354   -1775.9354 
     660            0    1314500.1            0   -1775.9654   -1775.9654 
     661            0      1314413            0   -1776.0068   -1776.0068 
     662            0    1314226.7            0   -1776.1186   -1776.1186 
     663            0    1314156.3            0   -1776.2289   -1776.2289 
     664            0    1314008.2            0   -1776.3537   -1776.3537 
     665            0    1314029.8            0   -1776.4385   -1776.4385 
     666            0    1314241.5            0   -1776.5661   -1776.5661 
     667            0    1314179.7            0    -1776.722    -1776.722 
     668            0    1314157.2            0   -1776.8032   -1776.8032 
     669            0    1314098.5            0   -1776.8846   -1776.8846 
     670            0    1314029.3            0   -1776.9399   -1776.9399 
     671            0    1314094.8            0    -1776.994    -1776.994 
     672            0    1314008.4            0   -1777.0438   -1777.0438 
     673            0    1313969.8            0   -1777.0914   -1777.0914 
     674            0    1313789.5            0   -1777.1474   -1777.1474 
     675            0      1313480            0   -1777.2087   -1777.2087 
     676            0    1313280.5            0   -1777.2814   -1777.2814 
     677            0    1313078.7            0   -1777.3471   -1777.3471 
     678            0    1313083.3            0   -1777.4038   -1777.4038 
     679            0    1312972.7            0   -1777.4522   -1777.4522 
     680            0    1312904.8            0   -1777.4982   -1777.4982 
     681            0    1312756.7            0    -1777.545    -1777.545 
     682            0    1312676.7            0   -1777.5934   -1777.5934 
     683            0    1312550.8            0     -1777.64     -1777.64 
     684            0      1312512            0   -1777.6878   -1777.6878 
     685            0    1312398.4            0   -1777.7309   -1777.7309 
     686            0    1312420.6            0   -1777.7694   -1777.7694 
     687            0    1312371.5            0   -1777.8046   -1777.8046 
     688            0    1312438.3            0   -1777.8337   -1777.8337 
     689            0    1312468.8            0   -1777.8616   -1777.8616 
     690            0    1312659.5            0   -1777.8871   -1777.8871 
     691            0    1312833.4            0   -1777.9101   -1777.9101 
     692            0    1313083.3            0   -1777.9315   -1777.9315 
     693            0    1313196.6            0   -1777.9493   -1777.9493 
     694            0    1313391.1            0   -1777.9646   -1777.9646 
     695            0    1313454.1            0   -1777.9775   -1777.9775 
     696            0    1313561.1            0   -1777.9886   -1777.9886 
     697            0    1313616.1            0   -1777.9979   -1777.9979 
     698            0    1313696.7            0   -1778.0062   -1778.0062 
     699            0    1313722.2            0   -1778.0132   -1778.0132 
     700            0    1313759.7            0    -1778.019    -1778.019 
     701            0    1313736.9            0   -1778.0239   -1778.0239 
     702            0    1313751.9            0    -1778.028    -1778.028 
     703            0    1313724.6            0    -1778.032    -1778.032 
     704            0    1313731.2            0   -1778.0353   -1778.0353 
     705            0    1313693.6            0   -1778.0384   -1778.0384 
     706            0    1313671.4            0   -1778.0411   -1778.0411 
     707            0    1313601.4            0   -1778.0437   -1778.0437 
     708            0    1313544.1            0   -1778.0462   -1778.0462 
     709            0    1313480.7            0   -1778.0487   -1778.0487 
     710            0    1313478.2            0   -1778.0514   -1778.0514 
     711            0    1313452.1            0   -1778.0542   -1778.0542 
     712            0    1313460.4            0   -1778.0574   -1778.0574 
     713            0    1313442.9            0   -1778.0613   -1778.0613 
     714            0    1313452.4            0   -1778.0667   -1778.0667 
     715            0    1313408.6            0   -1778.0744   -1778.0744 
     716            0    1313405.2            0   -1778.0851   -1778.0851 
     717            0    1313368.2            0   -1778.0985   -1778.0985 
     718            0    1313427.3            0   -1778.1135   -1778.1135 
     719            0    1313473.4            0   -1778.1374   -1778.1374 
     720            0    1313544.3            0   -1778.1628   -1778.1628 
     721            0    1313458.6            0   -1778.2197   -1778.2197 
     722            0    1313466.6            0   -1778.2512   -1778.2512 
     723            0    1313402.2            0   -1778.2898   -1778.2898 
     724            0    1313431.7            0   -1778.3275   -1778.3275 
     725            0    1313400.3            0   -1778.3585   -1778.3585 
     726            0    1313516.5            0   -1778.3922   -1778.3922 
     727            0    1313528.2            0   -1778.4242   -1778.4242 
     728            0    1313596.4            0   -1778.4521   -1778.4521 
     729            0    1313537.7            0   -1778.4801   -1778.4801 
     730            0    1313600.3            0    -1778.508    -1778.508 
     731            0    1313597.5            0   -1778.5406   -1778.5406 
     732            0    1313707.7            0   -1778.5883   -1778.5883 
     733            0    1313664.3            0   -1778.6437   -1778.6437 
     734            0    1313671.9            0   -1778.7066   -1778.7066 
     735            0    1313679.7            0   -1778.7645   -1778.7645 
     736            0    1313795.9            0   -1778.8097   -1778.8097 
     737            0    1313826.6            0   -1778.8477   -1778.8477 
     738            0      1313899            0   -1778.8805   -1778.8805 
     739            0    1313788.8            0   -1778.9014   -1778.9014 
     740            0    1313731.4            0   -1778.9189   -1778.9189 
     741            0    1313575.6            0   -1778.9319   -1778.9319 
     742            0    1313505.3            0   -1778.9436   -1778.9436 
     743            0    1313442.2            0   -1778.9522   -1778.9522 
     744            0    1313428.3            0   -1778.9598   -1778.9598 
     745            0      1313405            0   -1778.9655   -1778.9655 
     746            0    1313396.6            0   -1778.9699   -1778.9699 
     747            0    1313384.6            0   -1778.9735   -1778.9735 
     748            0    1313425.5            0   -1778.9765   -1778.9765 
     749            0    1313434.5            0   -1778.9793   -1778.9793 
     750            0    1313466.7            0   -1778.9817   -1778.9817 
     751            0    1313458.3            0    -1778.984    -1778.984 
     752            0    1313463.9            0   -1778.9863   -1778.9863 
     753            0    1313421.1            0   -1778.9891   -1778.9891 
     754            0    1313372.3            0   -1778.9923   -1778.9923 
     755            0    1313252.8            0   -1778.9972   -1778.9972 
     756            0    1313078.7            0   -1779.0077   -1779.0077 
     757            0    1312821.3            0   -1779.0237   -1779.0237 
     758            0      1312574            0   -1779.0487   -1779.0487 
     759            0    1312440.5            0   -1779.0723   -1779.0723 
     760            0    1312321.3            0    -1779.093    -1779.093 
     761            0    1312221.9            0   -1779.1085   -1779.1085 
     762            0    1312150.7            0   -1779.1219   -1779.1219 
     763            0    1312147.7            0   -1779.1312   -1779.1312 
     764            0    1312081.7            0   -1779.1405   -1779.1405 
     765            0      1312082            0   -1779.1479   -1779.1479 
     766            0      1312063            0   -1779.1553   -1779.1553 
     767            0    1312107.8            0   -1779.1613   -1779.1613 
     768            0    1312116.1            0   -1779.1662   -1779.1662 
     769            0    1312117.8            0   -1779.1703   -1779.1703 
     770            0    1312105.5            0   -1779.1733   -1779.1733 
     771            0    1312090.3            0    -1779.176    -1779.176 
     772            0    1312060.6            0   -1779.1781   -1779.1781 
     773            0    1312050.5            0   -1779.1799   -1779.1799 
     774            0    1312043.7            0   -1779.1814   -1779.1814 
     775            0    1312056.9            0   -1779.1827   -1779.1827 
     776            0    1312051.5            0   -1779.1838   -1779.1838 
     777            0    1312071.2            0   -1779.1847   -1779.1847 
     778            0    1312065.3            0   -1779.1854   -1779.1854 
     779            0    1312087.5            0    -1779.186    -1779.186 
     780            0      1312091            0   -1779.1865   -1779.1865 
     781            0    1312109.4            0   -1779.1869   -1779.1869 
     782            0    1312115.2            0   -1779.1873   -1779.1873 
     783            0    1312131.1            0   -1779.1877   -1779.1877 
     784            0    1312140.2            0    -1779.188    -1779.188 
     785            0    1312150.1            0   -1779.1882   -1779.1882 
     786            0    1312154.6            0   -1779.1885   -1779.1885 
     787            0    1312154.9            0   -1779.1886   -1779.1886 
     788            0    1312150.8            0   -1779.1888   -1779.1888 
     789            0    1312145.8            0   -1779.1889   -1779.1889 
     790            0    1312138.5            0    -1779.189    -1779.189 
     791            0    1312134.6            0   -1779.1891   -1779.1891 
     792            0    1312128.6            0   -1779.1892   -1779.1892 
     793            0    1312128.4            0   -1779.1893   -1779.1893 
     794            0      1312126            0   -1779.1894   -1779.1894 
     795            0    1312130.8            0   -1779.1895   -1779.1895 
     796            0      1312134            0   -1779.1896   -1779.1896 
     797            0    1312148.8            0   -1779.1897   -1779.1897 
     798            0    1312162.8            0   -1779.1898   -1779.1898 
     799            0    1312187.9            0     -1779.19     -1779.19 
     800            0      1312205            0   -1779.1903   -1779.1903 
     801            0    1312234.9            0   -1779.1906   -1779.1906 
     802            0    1312256.6            0    -1779.191    -1779.191 
     803            0    1312292.6            0   -1779.1915   -1779.1915 
     804            0      1312330            0   -1779.1921   -1779.1921 
     805            0    1312383.8            0   -1779.1927   -1779.1927 
     806            0    1312425.7            0   -1779.1934   -1779.1934 
     807            0    1312482.8            0   -1779.1942   -1779.1942 
     808            0    1312542.3            0   -1779.1951   -1779.1951 
     809            0    1312610.5            0   -1779.1961   -1779.1961 
     810            0    1312686.6            0   -1779.1978   -1779.1978 
     811            0    1312750.8            0   -1779.2003   -1779.2003 
     812            0    1312784.5            0   -1779.2043   -1779.2043 
     813            0    1312826.7            0   -1779.2093   -1779.2093 
     814            0    1312854.8            0   -1779.2146   -1779.2146 
     815            0    1312904.7            0   -1779.2191   -1779.2191 
     816            0    1312909.5            0   -1779.2231   -1779.2231 
     817            0    1312959.4            0   -1779.2266   -1779.2266 
     818            0    1312987.1            0   -1779.2294   -1779.2294 
     819            0    1313054.3            0    -1779.232    -1779.232 
     820            0    1313071.5            0   -1779.2343   -1779.2343 
     821            0    1313088.1            0   -1779.2357   -1779.2357 
     822            0      1313096            0   -1779.2371   -1779.2371 
     823            0    1313118.8            0   -1779.2386   -1779.2386 
     824            0    1313121.6            0   -1779.2395   -1779.2395 
     825            0    1313121.6            0   -1779.2406   -1779.2406 
     826            0    1313113.4            0   -1779.2416   -1779.2416 
     827            0    1313120.3            0   -1779.2424   -1779.2424 
     828            0    1313112.9            0   -1779.2432   -1779.2432 
     829            0    1313118.4            0   -1779.2439   -1779.2439 
     830            0    1313110.4            0   -1779.2444   -1779.2444 
     831            0    1313120.1            0   -1779.2449   -1779.2449 
     832            0    1313107.1            0   -1779.2453   -1779.2453 
     833            0    1313104.8            0   -1779.2457   -1779.2457 
     834            0    1313096.1            0    -1779.246    -1779.246 
     835            0    1313097.9            0   -1779.2462   -1779.2462 
     836            0    1313092.6            0   -1779.2464   -1779.2464 
     837            0    1313093.1            0   -1779.2466   -1779.2466 
     838            0    1313086.3            0   -1779.2468   -1779.2468 
     839            0    1313081.8            0   -1779.2469   -1779.2469 
     840            0    1313077.6            0    -1779.247    -1779.247 
     841            0    1313075.4            0    -1779.247    -1779.247 
     842            0    1313067.2            0   -1779.2471   -1779.2471 
     843            0    1313062.9            0   -1779.2472   -1779.2472 
     844            0    1313056.7            0   -1779.2472   -1779.2472 
     845            0    1313056.5            0   -1779.2472   -1779.2472 
     846            0      1313053            0   -1779.2473   -1779.2473 
     847            0      1313052            0   -1779.2473   -1779.2473 
     848            0    1313049.7            0   -1779.2473   -1779.2473 
     849            0    1313053.1            0   -1779.2474   -1779.2474 
     850            0    1313055.3            0   -1779.2474   -1779.2474 
     851            0    1313059.9            0   -1779.2474   -1779.2474 
     852            0    1313061.5            0   -1779.2474   -1779.2474 
     853            0    1313066.4            0   -1779.2475   -1779.2475 
     854            0    1313068.1            0   -1779.2475   -1779.2475 
     855            0    1313070.6            0   -1779.2475   -1779.2475 
     856            0    1313071.5            0   -1779.2475   -1779.2475 
     857            0    1313073.8            0   -1779.2475   -1779.2475 
     858            0    1313075.3            0   -1779.2475   -1779.2475 
     859            0    1313077.7            0   -1779.2475   -1779.2475 
     860            0    1313078.6            0   -1779.2475   -1779.2475 
     861            0    1313080.3            0   -1779.2475   -1779.2475 
     862            0    1313081.5            0   -1779.2475   -1779.2475 
     863            0      1313083            0   -1779.2475   -1779.2475 
     864            0    1313082.8            0   -1779.2476   -1779.2476 
     865            0    1313084.4            0   -1779.2476   -1779.2476 
     866            0    1313084.9            0   -1779.2476   -1779.2476 
     867            0    1313086.1            0   -1779.2476   -1779.2476 
     868            0      1313086            0   -1779.2476   -1779.2476 
     869            0      1313087            0   -1779.2476   -1779.2476 
     870            0    1313087.2            0   -1779.2476   -1779.2476 
     871            0    1313087.3            0   -1779.2476   -1779.2476 
     872            0    1313086.4            0   -1779.2476   -1779.2476 
     873            0    1313085.9            0   -1779.2476   -1779.2476 
     874            0    1313085.4            0   -1779.2476   -1779.2476 
     875            0    1313084.8            0   -1779.2476   -1779.2476 
     876            0    1313083.9            0   -1779.2476   -1779.2476 
     877            0    1313083.3            0   -1779.2476   -1779.2476 
     878            0    1313082.4            0   -1779.2476   -1779.2476 
     879            0    1313081.8            0   -1779.2476   -1779.2476 
     880            0      1313081            0   -1779.2476   -1779.2476 
     881            0    1313080.9            0   -1779.2476   -1779.2476 
     882            0    1313080.4            0   -1779.2476   -1779.2476 
     883            0    1313080.1            0   -1779.2476   -1779.2476 
     884            0    1313079.6            0   -1779.2476   -1779.2476 
     885            0    1313079.4            0   -1779.2476   -1779.2476 
     886            0    1313079.1            0   -1779.2476   -1779.2476 
     887            0    1313079.1            0   -1779.2476   -1779.2476 
     888            0      1313079            0   -1779.2476   -1779.2476 
     889            0    1313079.2            0   -1779.2476   -1779.2476 
     890            0    1313079.3            0   -1779.2476   -1779.2476 
     891            0    1313079.3            0   -1779.2476   -1779.2476 
     892            0    1313079.4            0   -1779.2476   -1779.2476 
     893            0    1313079.5            0   -1779.2476   -1779.2476 
     894            0    1313079.5            0   -1779.2476   -1779.2476 
     895            0    1313079.6            0   -1779.2476   -1779.2476 
     896            0    1313079.6            0   -1779.2476   -1779.2476 
     897            0    1313079.8            0   -1779.2476   -1779.2476 
     898            0    1313079.8            0   -1779.2476   -1779.2476 
     899            0      1313080            0   -1779.2476   -1779.2476 
     900            0    1313080.1            0   -1779.2476   -1779.2476 
     901            0    1313080.3            0   -1779.2476   -1779.2476 
     902            0    1313080.3            0   -1779.2476   -1779.2476 
     903            0    1313080.5            0   -1779.2476   -1779.2476 
     904            0    1313080.6            0   -1779.2476   -1779.2476 
     905            0    1313080.7            0   -1779.2476   -1779.2476 
     906            0    1313080.7            0   -1779.2476   -1779.2476 
     907            0    1313080.8            0   -1779.2476   -1779.2476 
     908            0    1313080.8            0   -1779.2476   -1779.2476 
     909            0    1313080.8            0   -1779.2476   -1779.2476 
     910            0    1313080.8            0   -1779.2476   -1779.2476 
     911            0    1313080.9            0   -1779.2476   -1779.2476 
     912            0    1313080.9            0   -1779.2476   -1779.2476 
     913            0    1313080.9            0   -1779.2476   -1779.2476 
     914            0    1313080.8            0   -1779.2476   -1779.2476 
     915            0    1313080.9            0   -1779.2476   -1779.2476 
     916            0    1313080.8            0   -1779.2476   -1779.2476 
     917            0    1313080.8            0   -1779.2476   -1779.2476 
     918            0    1313080.8            0   -1779.2476   -1779.2476 
     919            0    1313080.8            0   -1779.2476   -1779.2476 
     920            0    1313080.8            0   -1779.2476   -1779.2476 
     921            0    1313080.8            0   -1779.2476   -1779.2476 
     922            0    1313080.8            0   -1779.2476   -1779.2476 
     923            0    1313080.7            0   -1779.2476   -1779.2476 
     924            0    1313080.7            0   -1779.2476   -1779.2476 
     925            0    1313080.7            0   -1779.2476   -1779.2476 
     926            0    1313080.7            0   -1779.2476   -1779.2476 
     927            0    1313080.7            0   -1779.2476   -1779.2476 
     928            0    1313080.7            0   -1779.2476   -1779.2476 
     929            0    1313080.7            0   -1779.2476   -1779.2476 
     930            0    1313080.6            0   -1779.2476   -1779.2476 
     931            0    1313080.6            0   -1779.2476   -1779.2476 
     932            0    1313080.6            0   -1779.2476   -1779.2476 
     933            0    1313080.6            0   -1779.2476   -1779.2476 
     934            0    1313080.6            0   -1779.2476   -1779.2476 
     935            0    1313080.6            0   -1779.2476   -1779.2476 
     936            0    1313080.6            0   -1779.2476   -1779.2476 
     937            0    1313080.6            0   -1779.2476   -1779.2476 
     938            0    1313080.6            0   -1779.2476   -1779.2476 
     939            0    1313080.6            0   -1779.2476   -1779.2476 
     940            0    1313080.6            0   -1779.2476   -1779.2476 
     941            0    1313080.6            0   -1779.2476   -1779.2476 
     942            0    1313080.6            0   -1779.2476   -1779.2476 
     943            0    1313080.6            0   -1779.2476   -1779.2476 
     944            0    1313080.6            0   -1779.2476   -1779.2476 
     945            0    1313080.6            0   -1779.2476   -1779.2476 
     946            0    1313080.6            0   -1779.2476   -1779.2476 
     947            0    1313080.6            0   -1779.2476   -1779.2476 
     948            0    1313080.6            0   -1779.2476   -1779.2476 
     949            0    1313080.6            0   -1779.2476   -1779.2476 
     950            0    1313080.6            0   -1779.2476   -1779.2476 
     951            0    1313080.6            0   -1779.2476   -1779.2476 
     952            0    1313080.6            0   -1779.2476   -1779.2476 
     953            0    1313080.6            0   -1779.2476   -1779.2476 
     954            0    1313080.6            0   -1779.2476   -1779.2476 
     955            0    1313080.6            0   -1779.2476   -1779.2476 
     956            0    1313080.6            0   -1779.2476   -1779.2476 
     957            0    1313080.6            0   -1779.2476   -1779.2476 
     958            0    1313080.6            0   -1779.2476   -1779.2476 
     959            0    1313080.6            0   -1779.2476   -1779.2476 
     960            0    1313080.6            0   -1779.2476   -1779.2476 
     961            0    1313080.6            0   -1779.2476   -1779.2476 
     962            0    1313080.6            0   -1779.2476   -1779.2476 
     963            0    1313080.6            0   -1779.2476   -1779.2476 
     964            0    1313080.6            0   -1779.2476   -1779.2476 
     965            0    1313080.6            0   -1779.2476   -1779.2476 
     966            0    1313080.6            0   -1779.2476   -1779.2476 
     967            0    1313080.6            0   -1779.2476   -1779.2476 
     968            0    1313080.6            0   -1779.2476   -1779.2476 
     969            0    1313080.6            0   -1779.2476   -1779.2476 
     970            0    1313080.6            0   -1779.2476   -1779.2476 
     971            0    1313080.6            0   -1779.2476   -1779.2476 
     972            0    1313080.6            0   -1779.2476   -1779.2476 
     973            0    1313080.6            0   -1779.2476   -1779.2476 
     974            0    1313080.6            0   -1779.2476   -1779.2476 
     975            0    1313080.6            0   -1779.2476   -1779.2476 
Loop time of 19.3737 on 1 procs for 975 steps with 402 atoms

100.0% CPU use with 1 MPI tasks x no OpenMP threads

Minimization stats:
  Stopping criterion = energy tolerance
  Energy initial, next-to-last, final = 
         34510.5124299      -1779.2475766      -1779.2475766
  Force two-norm initial, final = 12993.1 2.56525e-06
  Force max component initial, final = 1112.53 6.29699e-07
  Final line search alpha, max atom move = 1 6.29699e-07
  Iterations, force evaluations = 975 1850

MPI task timing breakdown:
Section |  min time  |  avg time  |  max time  |%varavg| %total
---------------------------------------------------------------
Pair    | 19.254     | 19.254     | 19.254     |   0.0 | 99.38
Bond    | 0.0009752  | 0.0009752  | 0.0009752  |   0.0 |  0.01
Neigh   | 0.033912   | 0.033912   | 0.033912   |   0.0 |  0.18
Comm    | 0.01745    | 0.01745    | 0.01745    |   0.0 |  0.09
Output  | 0.032101   | 0.032101   | 0.032101   |   0.0 |  0.17
Modify  | 0          | 0          | 0          |   0.0 |  0.00
Other   |            | 0.03538    |            |       |  0.18

Nlocal:    402 ave 402 max 402 min
Histogram: 1 0 0 0 0 0 0 0 0 0
Nghost:    2021 ave 2021 max 2021 min
Histogram: 1 0 0 0 0 0 0 0 0 0
Neighs:    22727 ave 22727 max 22727 min
Histogram: 1 0 0 0 0 0 0 0 0 0
FullNghs:  45454 ave 45454 max 45454 min
Histogram: 1 0 0 0 0 0 0 0 0 0

Total # of neighbors = 45454
Ave neighs/atom = 113.07
Ave special neighs/atom = 0
Neighbor list builds = 22
Dangerous builds = 0
undump                 Min
reset_timestep	       0

#-------------------------------------------------------------#
#---- Dynamic stage: Calculation enthalpy in NVT ensemble ----#
#-------------------------------------------------------------#

#---------------------Set canonical ensemble(NVT) in T=${Temperature}
fix                   NVT_Equilibrium_Final all nvt temp ${Temperature} ${Temperature} 0.1
fix                   NVT_Equilibrium_Final all nvt temp 300 ${Temperature} 0.1
fix                   NVT_Equilibrium_Final all nvt temp 300 300 0.1

#---------------------Save the trajectories with dump command in Equilibrium stage
dump                  Equilibrium.NVT.Final all atom 100 Equilibrium.NVT.Final.atom

#-----------------------------------------------------#
#-------------- Calculation enthalpy -----------------#
#-----------------------------------------------------#

#---------------------Calculation potentials energy per atoms
compute               Potentials_energy_per_atoms_vector all pe/atom
variable              PD atom c_Potentials_energy_per_atoms_vector            # PD= Potentials_energy_per_atoms_vector for dump
compute               Potentials_energy all reduce sum c_Potentials_energy_per_atoms_vector
variable              N equal "count(all)"
variable              N1 equal count(Ta)
variable              N2 equal count(Co)
variable              n equal 1        # Ta_nCo_m
variable              m equal 2
compute               ETa Ta pe/atom
compute               ECo Co pe/atom
compute               E1 Ta reduce sum c_ETa
compute               E2 Co reduce sum c_ECo
variable              Potentials_energy_per_atoms_scaller equal "c_Potentials_energy/v_N"
[...]
    9868     291.3198    1318759.4   -1752.9499    -4.360572   -268.72432   -1499.3257  -0.23544588    1035.7855    6.1333333            5 
    9869    290.26314    1318712.2   -1752.9603   -4.3605977   -268.69591   -1499.3097  -0.23544549    1035.7648    6.1333333            5 
    9870    289.19484    1318666.7   -1752.9705   -4.3606231   -268.66409   -1499.2963   -0.2354451    1035.7446    6.1333333            5 
    9871    288.13294    1318622.8   -1752.9806   -4.3606482   -268.62917   -1499.2863  -0.23544472    1035.7252    6.1333333            5 
    9872    287.09552    1318580.7   -1752.9905   -4.3606728   -268.59145   -1499.2801  -0.23544435    1035.7073    6.1333333            5 
    9873     286.1002    1318540.3   -1753.0002   -4.3606971   -268.55128   -1499.2785  -0.23544398    1035.6912    6.1333333            5 
    9874    285.16375    1318501.7   -1753.0098   -4.3607209     -268.509   -1499.2818  -0.23544362    1035.6775    6.1333333            5 
    9875    284.30157    1318464.9   -1753.0192   -4.3607443   -268.46498   -1499.2905  -0.23544327    1035.6665    6.1333333            5 
    9876    283.52731    1318429.9   -1753.0285   -4.3607673   -268.41959    -1499.305  -0.23544292    1035.6586    6.1333333            5 
    9877    282.85249    1318396.8   -1753.0375   -4.3607898   -268.37319   -1499.3255  -0.23544258    1035.6542    6.1333333            5 
    9878    282.28622    1318365.7   -1753.0464   -4.3608119   -268.32615   -1499.3521  -0.23544224    1035.6532    6.1333333            5 
    9879      281.835    1318336.5   -1753.0551   -4.3608336   -268.27883   -1499.3847  -0.23544192     1035.656    6.1333333            5 
    9880    281.50253    1318309.4   -1753.0636   -4.3608548    -268.2316   -1499.4232  -0.23544159    1035.6625    6.1333333            5 
    9881    281.28964    1318284.6    -1753.072   -4.3608755   -268.18479   -1499.4674  -0.23544128    1035.6727    6.1333333            5 
    9882    281.19438    1318262.1   -1753.0801   -4.3608959   -268.13873   -1499.5166  -0.23544097    1035.6864    6.1333333            5 
    9883    281.21207    1318241.8   -1753.0881   -4.3609157   -268.09373   -1499.5706  -0.23544067    1035.7034    6.1333333            5 
    9884     281.3355    1318223.9   -1753.0959   -4.3609352   -268.05007   -1499.6284  -0.23544038    1035.7233    6.1333333            5 
    9885    281.55524    1318208.6   -1753.1036   -4.3609542   -268.00802   -1499.6895  -0.23544009    1035.7459    6.1333333            5 
    9886    281.85993    1318195.9   -1753.1111   -4.3609728   -267.96782    -1499.753  -0.23543981    1035.7707    6.1333333            5 
    9887    282.23672    1318186.1   -1753.1184    -4.360991   -267.92966    -1499.818  -0.23543953    1035.7972    6.1333333            5 
    9888    282.67169    1318179.2   -1753.1255   -4.3610088   -267.89373   -1499.8836  -0.23543926    1035.8249    6.1333333            5 
    9889    283.15037    1318175.2   -1753.1325   -4.3610262   -267.86016    -1499.949    -0.235439    1035.8533    6.1333333            5 
    9890    283.65824    1318174.3   -1753.1394   -4.3610432   -267.82907   -1500.0133  -0.23543874     1035.882    6.1333333            5 
    9891    284.18126    1318176.6   -1753.1461   -4.3610599   -267.80055   -1500.0756  -0.23543849    1035.9104    6.1333333            5 
    9892    284.70626    1318182.1   -1753.1526   -4.3610762   -267.77466   -1500.1352  -0.23543824    1035.9381    6.1333333            5 
    9893    285.22144    1318190.8    -1753.159   -4.3610921    -267.7514   -1500.1916    -0.235438    1035.9648    6.1333333            5 
    9894    285.71676    1318202.4   -1753.1653   -4.3611077   -267.73079   -1500.2441  -0.23543776      1035.99    6.1333333            5 
    9895    286.18422    1318216.8   -1753.1714   -4.3611229    -267.7128   -1500.2925  -0.23543753    1036.0136    6.1333333            5 
    9896    286.61801    1318233.7   -1753.1774   -4.3611378   -267.69736   -1500.3364  -0.23543731    1036.0353    6.1333333            5 
    9897    287.01474    1318253.1   -1753.1832   -4.3611524    -267.6844   -1500.3758  -0.23543709    1036.0552    6.1333333            5 
    9898    287.37355    1318274.6    -1753.189   -4.3611666   -267.67384   -1500.4107  -0.23543687    1036.0731    6.1333333            5 
    9899    287.69594      1318298   -1753.1946   -4.3611805   -267.66557   -1500.4412  -0.23543666    1036.0891    6.1333333            5 
    9900    287.98558    1318322.9   -1753.2001   -4.3611942   -267.65946   -1500.4678  -0.23543645    1036.1035    6.1333333            5 
    9901    288.24811    1318348.9   -1753.2054   -4.3612075   -267.65539   -1500.4909  -0.23543625    1036.1164    6.1333333            5 
    9902    288.49071    1318375.6   -1753.2107   -4.3612205   -267.65322   -1500.5109  -0.23543605    1036.1281    6.1333333            5 
    9903    288.72171    1318402.6   -1753.2158   -4.3612333    -267.6528   -1500.5284  -0.23543586     1036.139    6.1333333            5 
    9904       288.95    1318429.6   -1753.2208   -4.3612458   -267.65399   -1500.5441  -0.23543567    1036.1492    6.1333333            5 
    9905    289.18458    1318456.1   -1753.2257    -4.361258   -267.65664   -1500.5585  -0.23543548    1036.1592    6.1333333            5 
    9906    289.43406    1318481.6   -1753.2305     -4.36127   -267.66062   -1500.5722   -0.2354353    1036.1693    6.1333333            5 
    9907    289.70617    1318505.9   -1753.2353   -4.3612817   -267.66578   -1500.5859  -0.23543513    1036.1798    6.1333333            5 
    9908    290.00726    1318528.4   -1753.2399   -4.3612932   -267.67199   -1500.5999  -0.23543495    1036.1909    6.1333333            5 
    9909    290.34193    1318548.9   -1753.2444   -4.3613045   -267.67913   -1500.6147  -0.23543478    1036.2028    6.1333333            5 
    9910    290.71274    1318567.1   -1753.2489   -4.3613156   -267.68707   -1500.6304  -0.23543461    1036.2156    6.1333333            5 
    9911    291.11999    1318582.8   -1753.2532   -4.3613265   -267.69571   -1500.6473  -0.23543445    1036.2294    6.1333333            5 
    9912    291.56164    1318595.8   -1753.2575   -4.3613372   -267.70495   -1500.6652  -0.23543429    1036.2441    6.1333333            5 
    9913    292.03331    1318606.1   -1753.2618   -4.3613477   -267.71471   -1500.6841  -0.23543413    1036.2596    6.1333333            5 
    9914    292.52849    1318613.4   -1753.2659    -4.361358   -267.72489   -1500.7038  -0.23543397    1036.2757    6.1333333            5 
    9915    293.03876    1318617.8     -1753.27   -4.3613682   -267.73544   -1500.7238  -0.23543381    1036.2921    6.1333333            5 
    9916    293.55416    1318619.4   -1753.2741   -4.3613783    -267.7463   -1500.7437  -0.23543366    1036.3086    6.1333333            5 
    9917    294.06357    1318618.1   -1753.2781   -4.3613882    -267.7574   -1500.7629  -0.23543351    1036.3249    6.1333333            5 
    9918    294.55522    1318614.1    -1753.282    -4.361398   -267.76871    -1500.781  -0.23543336    1036.3404    6.1333333            5 
    9919    295.01722    1318607.5   -1753.2859   -4.3614076   -267.78019   -1500.7974  -0.23543322    1036.3549    6.1333333            5 
    9920    295.43806    1318598.5   -1753.2897   -4.3614171    -267.7918   -1500.8114  -0.23543307    1036.3681    6.1333333            5 
    9921    295.80721    1318587.1   -1753.2935   -4.3614265   -267.80351   -1500.8226  -0.23543293    1036.3794    6.1333333            5 
    9922    296.11552    1318573.4   -1753.2972   -4.3614359   -267.81528   -1500.8306  -0.23543279    1036.3888    6.1333333            5 
    9923    296.35574    1318557.6   -1753.3009    -4.361445    -267.8271   -1500.8349  -0.23543265    1036.3959    6.1333333            5 
    9924    296.52283    1318539.7   -1753.3046   -4.3614541   -267.83892   -1500.8354  -0.23543251    1036.4006    6.1333333            5 
    9925    296.61421    1318519.9   -1753.3082   -4.3614631   -267.85073   -1500.8319  -0.23543238    1036.4029    6.1333333            5 
    9926    296.62998    1318498.2   -1753.3117    -4.361472   -267.86247   -1500.8246  -0.23543224    1036.4026    6.1333333            5 
    9927    296.57291    1318474.6   -1753.3153   -4.3614808   -267.87413   -1500.8135  -0.23543211       1036.4    6.1333333            5 
    9928    296.44837    1318449.1   -1753.3187   -4.3614894   -267.88566    -1500.799  -0.23543198    1036.3952    6.1333333            5 
    9929    296.26413    1318421.7   -1753.3222    -4.361498   -267.89701   -1500.7815  -0.23543185    1036.3885    6.1333333            5 
    9930    296.03008    1318392.3   -1753.3256   -4.3615064   -267.90816   -1500.7616  -0.23543172    1036.3802    6.1333333            5 
    9931    295.75791    1318360.9   -1753.3289   -4.3615147   -267.91904     -1500.74   -0.2354316    1036.3707    6.1333333            5 
    9932    295.46067    1318327.4   -1753.3322   -4.3615229   -267.92962   -1500.7173  -0.23543147    1036.3604    6.1333333            5 
    9933    295.15224    1318291.8   -1753.3354   -4.3615309   -267.93984   -1500.6943  -0.23543135    1036.3498    6.1333333            5 
    9934    294.84689    1318254.1   -1753.3386   -4.3615389   -267.94967   -1500.6719  -0.23543123    1036.3393    6.1333333            5 
    9935    294.55875    1318214.3   -1753.3418   -4.3615467   -267.95905   -1500.6507  -0.23543111    1036.3296    6.1333333            5 
    9936    294.30136    1318172.2   -1753.3448   -4.3615543   -267.96796   -1500.6315  -0.23543099    1036.3209    6.1333333            5 
    9937    294.08707    1318127.9   -1753.3479   -4.3615619   -267.97635    -1500.615  -0.23543088    1036.3137    6.1333333            5 
    9938    293.92669    1318081.5   -1753.3508   -4.3615692   -267.98418   -1500.6019  -0.23543077    1036.3083    6.1333333            5 
    9939    293.82909      1318033   -1753.3538   -4.3615765   -267.99144   -1500.5924  -0.23543066    1036.3051    6.1333333            5 
    9940    293.80085    1317982.6   -1753.3566   -4.3615836    -267.9981   -1500.5872  -0.23543055    1036.3043    6.1333333            5 
    9941     293.8461    1317930.4   -1753.3594   -4.3615906   -268.00414   -1500.5863  -0.23543045     1036.306    6.1333333            5 
    9942     293.9664    1317876.6   -1753.3622   -4.3615974   -268.00957   -1500.5899  -0.23543034    1036.3102    6.1333333            5 
    9943    294.16066    1317821.7   -1753.3649   -4.3616042   -268.01436   -1500.5978  -0.23543024     1036.317    6.1333333            5 
    9944    294.42521    1317765.8   -1753.3675   -4.3616108   -268.01853     -1500.61  -0.23543014    1036.3262    6.1333333            5 
    9945    294.75385    1317709.3   -1753.3701   -4.3616172   -268.02207   -1500.6261  -0.23543004    1036.3376    6.1333333            5 
    9946    295.13814    1317652.6   -1753.3727   -4.3616236   -268.02499   -1500.6457  -0.23542995     1036.351    6.1333333            5 
    9947    295.56763    1317596.1   -1753.3752   -4.3616299   -268.02731   -1500.6682  -0.23542985    1036.3659    6.1333333            5 
    9948    296.03014    1317540.3   -1753.3777   -4.3616361   -268.02902   -1500.6929  -0.23542976    1036.3821    6.1333333            5 
    9949    296.51217    1317485.6   -1753.3801   -4.3616422   -268.03015   -1500.7192  -0.23542966     1036.399    6.1333333            5 
    9950     296.9993    1317432.5   -1753.3826   -4.3616482    -268.0307   -1500.7463  -0.23542957    1036.4162    6.1333333            5 
    9951    297.47657    1317381.2    -1753.385   -4.3616541   -268.03068   -1500.7735  -0.23542948    1036.4332    6.1333333            5 
    9952    297.92891    1317332.3   -1753.3873     -4.36166    -268.0301   -1500.7999  -0.23542939    1036.4495    6.1333333            5 
    9953     298.3415    1317286.1   -1753.3897   -4.3616659   -268.02899   -1500.8247   -0.2354293    1036.4647    6.1333333            5 
    9954    298.70024      1317243    -1753.392   -4.3616717   -268.02734   -1500.8473  -0.23542922    1036.4782    6.1333333            5 
    9955    298.99209    1317203.1   -1753.3943   -4.3616775   -268.02516   -1500.8669  -0.23542913    1036.4897    6.1333333            5 
    9956    299.20545    1317166.7   -1753.3966   -4.3616832   -268.02247    -1500.883  -0.23542904    1036.4987    6.1333333            5 
    9957    299.33038    1317133.9   -1753.3989   -4.3616889   -268.01926    -1500.895  -0.23542896     1036.505    6.1333333            5 
    9958     299.3589    1317104.8   -1753.4012   -4.3616946   -268.01554   -1500.9024  -0.23542887    1036.5083    6.1333333            5 
    9959    299.28522    1317079.3   -1753.4035   -4.3617002   -268.01131   -1500.9051  -0.23542879    1036.5084    6.1333333            5 
    9960     299.1059    1317057.4   -1753.4057   -4.3617058   -268.00658   -1500.9028   -0.2354287    1036.5052    6.1333333            5 
    9961    298.81995    1317038.9    -1753.408   -4.3617113   -268.00135   -1500.8954  -0.23542862    1036.4986    6.1333333            5 
    9962    298.42882    1317023.8   -1753.4102   -4.3617168   -267.99563   -1500.8831  -0.23542853    1036.4887    6.1333333            5 
    9963    297.93645    1317011.9   -1753.4123   -4.3617222   -267.98942    -1500.866  -0.23542845    1036.4757    6.1333333            5 
    9964    297.34931    1317002.8   -1753.4145   -4.3617276   -267.98272   -1500.8444  -0.23542837    1036.4596    6.1333333            5 
    9965    296.67625    1316996.2   -1753.4166   -4.3617328   -267.97554   -1500.8188  -0.23542829    1036.4409    6.1333333            5 
    9966    295.92835    1316991.5   -1753.4186   -4.3617379   -267.96789   -1500.7897  -0.23542821    1036.4198    6.1333333            5 
    9967    295.11862    1316988.3   -1753.4207   -4.3617429   -267.95976   -1500.7579  -0.23542814    1036.3968    6.1333333            5 
    9968    294.26177    1316986.1   -1753.4226   -4.3617478   -267.95116    -1500.724  -0.23542806    1036.3724    6.1333333            5 
    9969    293.37384    1316984.4   -1753.4245   -4.3617525    -267.9421   -1500.6889  -0.23542799     1036.347    6.1333333            5 
    9970    292.47181    1316982.7   -1753.4263    -4.361757   -267.93257   -1500.6535  -0.23542792    1036.3213    6.1333333            5 
    9971    291.57318    1316980.4    -1753.428   -4.3617612   -267.92258   -1500.6186  -0.23542786    1036.2957    6.1333333            5 
    9972    290.69546    1316977.1   -1753.4297   -4.3617653   -267.91213   -1500.5852   -0.2354278    1036.2708    6.1333333            5 
    9973    289.85573    1316972.4   -1753.4312   -4.3617691   -267.90119   -1500.5542  -0.23542774    1036.2473    6.1333333            5 
    9974    289.07013    1316965.7   -1753.4326   -4.3617727   -267.88978   -1500.5263  -0.23542769    1036.2255    6.1333333            5 
    9975    288.35333    1316956.8    -1753.434    -4.361776   -267.87788   -1500.5024  -0.23542764    1036.2061    6.1333333            5 
    9976    287.71814    1316945.3   -1753.4352   -4.3617791   -267.86548   -1500.4831  -0.23542759    1036.1894    6.1333333            5 
    9977    287.17504      1316931   -1753.4363   -4.3617818   -267.85255    -1500.469  -0.23542755    1036.1757    6.1333333            5 
    9978    286.73185    1316913.7   -1753.4373   -4.3617843   -267.83909   -1500.4605  -0.23542751    1036.1653    6.1333333            5 
    9979    286.39349    1316893.4   -1753.4381   -4.3617864   -267.82507   -1500.4578  -0.23542748    1036.1584    6.1333333            5 
    9980    286.16167    1316870.3   -1753.4389   -4.3617883   -267.81048   -1500.4611  -0.23542745    1036.1551    6.1333333            5 
    9981    286.03481    1316844.5   -1753.4395   -4.3617898   -267.79529   -1500.4703  -0.23542743    1036.1552    6.1333333            5 
    9982      286.008    1316816.1     -1753.44    -4.361791   -267.77949   -1500.4852  -0.23542741    1036.1586    6.1333333            5 
    9983    286.07311    1316785.4   -1753.4403   -4.3617919   -267.76305   -1500.5054   -0.2354274    1036.1651    6.1333333            5 
    9984    286.21895    1316752.6   -1753.4406   -4.3617925   -267.74596   -1500.5303  -0.23542739    1036.1743    6.1333333            5 
    9985    286.43159      1316718   -1753.4407   -4.3617927   -267.72821   -1500.5592  -0.23542738    1036.1858    6.1333333            5 
    9986    286.69485      1316682   -1753.4406   -4.3617926   -267.70978   -1500.5912  -0.23542738     1036.199    6.1333333            5 
    9987    286.99062    1316645.2   -1753.4405   -4.3617922   -267.69067   -1500.6255  -0.23542739    1036.2134    6.1333333            5 
    9988    287.29949    1316607.9   -1753.4402   -4.3617915   -267.67088    -1500.661   -0.2354274    1036.2283    6.1333333            5 
    9989     287.6013    1316570.8   -1753.4398   -4.3617905   -267.65041   -1500.6967  -0.23542742     1036.243    6.1333333            5 
    9990    287.87579    1316534.4   -1753.4393   -4.3617892   -267.62926   -1500.7315  -0.23542744     1036.257    6.1333333            5 
    9991    288.10319      1316499   -1753.4386   -4.3617875   -267.60746   -1500.7645  -0.23542746    1036.2695    6.1333333            5 
    9992    288.26492    1316465.2   -1753.4378   -4.3617856   -267.58502   -1500.7945  -0.23542749    1036.2799    6.1333333            5 
    9993    288.34418    1316433.3   -1753.4369   -4.3617833   -267.56196   -1500.8208  -0.23542753    1036.2878    6.1333333            5 
    9994    288.32653    1316403.6   -1753.4359   -4.3617808   -267.53832   -1500.8425  -0.23542756    1036.2926    6.1333333            5 
    9995     288.2004    1316376.4   -1753.4347   -4.3617779   -267.51412    -1500.859  -0.23542761    1036.2939    6.1333333            5 
    9996    287.95744    1316351.7   -1753.4334   -4.3617747   -267.48941   -1500.8698  -0.23542766    1036.2915    6.1333333            5 
    9997    287.59286    1316329.7    -1753.432   -4.3617711   -267.46423   -1500.8747  -0.23542771    1036.2851    6.1333333            5 
    9998    287.10567    1316310.4   -1753.4304   -4.3617672   -267.43863   -1500.8734  -0.23542777    1036.2748    6.1333333            5 
    9999    286.49875    1316293.6   -1753.4287    -4.361763   -267.41266   -1500.8663  -0.23542783    1036.2606    6.1333333            5 
   10000    285.77885    1316279.2   -1753.4269   -4.3617585   -267.38639   -1500.8534   -0.2354279    1036.2427    6.1333333            5 
Loop time of 125.46 on 1 procs for 10000 steps with 402 atoms

Performance: 6.887 ns/day, 3.485 hours/ns, 79.706 timesteps/s
99.8% CPU use with 1 MPI tasks x no OpenMP threads

MPI task timing breakdown:
Section |  min time  |  avg time  |  max time  |%varavg| %total
---------------------------------------------------------------
Pair    | 123.69     | 123.69     | 123.69     |   0.0 | 98.59
Bond    | 0.0064704  | 0.0064704  | 0.0064704  |   0.0 |  0.01
Neigh   | 0.015694   | 0.015694   | 0.015694   |   0.0 |  0.01
Comm    | 0.11566    | 0.11566    | 0.11566    |   0.0 |  0.09
Output  | 1.3703     | 1.3703     | 1.3703     |   0.0 |  1.09
Modify  | 0.18862    | 0.18862    | 0.18862    |   0.0 |  0.15
Other   |            | 0.07314    |            |       |  0.06

Nlocal:    402 ave 402 max 402 min
Histogram: 1 0 0 0 0 0 0 0 0 0
Nghost:    2025 ave 2025 max 2025 min
Histogram: 1 0 0 0 0 0 0 0 0 0
Neighs:    22721 ave 22721 max 22721 min
Histogram: 1 0 0 0 0 0 0 0 0 0
FullNghs:  45442 ave 45442 max 45442 min
Histogram: 1 0 0 0 0 0 0 0 0 0

Total # of neighbors = 45442
Ave neighs/atom = 113.04
Ave special neighs/atom = 0
Neighbor list builds = 9
Dangerous builds = 0

#--------------------Print flag order to show simulation is successful
print                "SIMULATION IS SUCCESSFUL DONE"
SIMULATION IS SUCCESSFUL DONE
Total wall time: 0:02:24
