ITEM: TIMESTEP
0
ITEM: NUMBER OF ATOMS
402
ITEM: BOX BOUNDS pp pp pp
-2.7500000000000000e-02 1.8372499999999999e+01
-2.7500000000000000e-02 1.8372499999999999e+01
-4.2000000000000003e-02 1.4958000000000000e+01
ITEM: ATOMS id type xs ys zs
1 1 0.00149457 0.00149457 0.0856667
14 1 0.167663 0.167663 0.0856667
258 2 0.115121 0.054037 0.0028
263 2 0.054037 0.115121 0.168533
43 1 0.333832 0.00149457 0.0856667
161 2 0.220205 0.054037 0.168533
165 2 0.386374 0.115121 0.168533
269 2 0.281289 0.115121 0.0028
60 1 0.5 0.167663 0.0856667
204 2 0.447458 0.054037 0.0028
210 2 0.552542 0.054037 0.168533
39 1 0.666168 0.00149457 0.0856667
155 2 0.779794 0.054037 0.0028
215 2 0.718711 0.115121 0.168533
222 2 0.613626 0.115121 0.0028
3 1 0.998505 0.00149457 0.0856667
62 1 0.832337 0.167663 0.0856667
170 2 0.945963 0.115121 0.0028
264 2 0.884879 0.054037 0.168533
31 1 0.00149457 0.333832 0.0856667
151 2 0.054037 0.220205 0.0028
166 2 0.115121 0.386374 0.0028
265 2 0.115121 0.281289 0.168533
103 1 0.333832 0.333832 0.0856667
163 2 0.220205 0.386374 0.168533
168 2 0.386374 0.220205 0.0028
266 2 0.281289 0.220205 0.168533
267 2 0.220205 0.281289 0.0028
297 2 0.552542 0.386374 0.168533
314 2 0.447458 0.386374 0.0028
355 2 0.552542 0.281289 0.0028
380 2 0.447458 0.281289 0.168533
107 1 0.666168 0.333832 0.0856667
214 2 0.613626 0.220205 0.168533
220 2 0.718711 0.220205 0.0028
293 2 0.779794 0.386374 0.0028
353 2 0.779794 0.281289 0.168533
32 1 0.998505 0.333832 0.0856667
159 2 0.945963 0.220205 0.168533
352 2 0.884879 0.386374 0.168533
396 2 0.884879 0.281289 0.0028
58 1 0.167663 0.5 0.0856667
200 2 0.054037 0.552542 0.0028
209 2 0.054037 0.447458 0.168533
298 2 0.386374 0.552542 0.0028
319 2 0.386374 0.447458 0.168533
354 2 0.281289 0.552542 0.168533
375 2 0.281289 0.447458 0.0028
118 1 0.5 0.5 0.0856667
312 2 0.613626 0.447458 0.0028
318 2 0.613626 0.552542 0.168533
325 2 0.718711 0.552542 0.0028
379 2 0.718711 0.447458 0.168533
122 1 0.832337 0.5 0.0856667
202 2 0.945963 0.447458 0.0028
208 2 0.945963 0.552542 0.168533
35 1 0.00149457 0.666168 0.0856667
160 2 0.054037 0.779794 0.168533
213 2 0.115121 0.613626 0.168533
216 2 0.115121 0.718711 0.0028
109 1 0.333832 0.666168 0.0856667
212 2 0.220205 0.718711 0.168533
218 2 0.220205 0.613626 0.0028
295 2 0.386374 0.779794 0.168533
357 2 0.281289 0.779794 0.0028
316 2 0.552542 0.613626 0.0028
320 2 0.447458 0.613626 0.168533
321 2 0.552542 0.718711 0.168533
377 2 0.447458 0.718711 0.0028
105 1 0.666168 0.666168 0.0856667
291 2 0.613626 0.779794 0.0028
296 2 0.779794 0.613626 0.168533
322 2 0.718711 0.779794 0.168533
323 2 0.779794 0.718711 0.0028
36 1 0.998505 0.666168 0.0856667
153 2 0.945963 0.779794 0.0028
349 2 0.884879 0.613626 0.0028
381 2 0.884879 0.718711 0.168533
2 1 0.00149457 0.998505 0.0856667
56 1 0.167663 0.832337 0.0856667
164 2 0.115121 0.945963 0.168533
256 2 0.054037 0.884879 0.0028
44 1 0.333832 0.998505 0.0856667
157 2 0.220205 0.945963 0.0028
347 2 0.386374 0.884879 0.0028
398 2 0.281289 0.884879 0.168533
120 1 0.5 0.832337 0.0856667
206 2 0.552542 0.945963 0.0028
211 2 0.447458 0.945963 0.168533
40 1 0.666168 0.998505 0.0856667
162 2 0.779794 0.945963 0.168533
351 2 0.613626 0.884879 0.168533
382 2 0.718711 0.884879 0.0028
4 1 0.998505 0.998505 0.0856667
116 1 0.832337 0.832337 0.0856667
260 2 0.884879 0.945963 0.0028
262 2 0.945963 0.884879 0.168533
9 1 0.00149457 0.00149457 0.2514
13 1 0.167663 0.167663 0.2514
16 1 0.00149457 0.00149457 0.417133
30 1 0.167663 0.167663 0.417133
273 2 0.115121 0.054037 0.334267
53 1 0.333832 0.00149457 0.2514
79 1 0.333832 0.00149457 0.417133
289 2 0.281289 0.115121 0.334267
61 1 0.5 0.167663 0.2514
102 1 0.5 0.167663 0.417133
228 2 0.447458 0.054037 0.334267
51 1 0.666168 0.00149457 0.2514
75 1 0.666168 0.00149457 0.417133
176 2 0.779794 0.054037 0.334267
253 2 0.613626 0.115121 0.334267
11 1 0.998505 0.00149457 0.2514
18 1 0.998505 0.00149457 0.417133
59 1 0.832337 0.167663 0.2514
101 1 0.832337 0.167663 0.417133
197 2 0.945963 0.115121 0.334267
49 1 0.00149457 0.333832 0.2514
67 1 0.00149457 0.333832 0.417133
172 2 0.054037 0.220205 0.334267
195 2 0.115121 0.386374 0.334267
114 1 0.333832 0.333832 0.2514
127 1 0.333832 0.333832 0.417133
199 2 0.386374 0.220205 0.334267
287 2 0.220205 0.281289 0.334267
329 2 0.447458 0.386374 0.334267
371 2 0.552542 0.281289 0.334267
112 1 0.666168 0.333832 0.2514
131 1 0.666168 0.333832 0.417133
255 2 0.718711 0.220205 0.334267
302 2 0.779794 0.386374 0.334267
50 1 0.998505 0.333832 0.2514
68 1 0.998505 0.333832 0.417133
400 2 0.884879 0.281289 0.334267
55 1 0.167663 0.5 0.2514
100 1 0.167663 0.5 0.417133
224 2 0.054037 0.552542 0.334267
311 2 0.386374 0.552542 0.334267
385 2 0.281289 0.447458 0.334267
115 1 0.5 0.5 0.2514
150 1 0.5 0.5 0.417133
328 2 0.613626 0.447458 0.334267
346 2 0.718711 0.552542 0.334267
119 1 0.832337 0.5 0.2514
148 1 0.832337 0.5 0.417133
226 2 0.945963 0.447458 0.334267
47 1 0.00149457 0.666168 0.2514
71 1 0.00149457 0.666168 0.417133
251 2 0.115121 0.718711 0.334267
111 1 0.333832 0.666168 0.2514
133 1 0.333832 0.666168 0.417133
249 2 0.220205 0.613626 0.334267
373 2 0.281289 0.779794 0.334267
331 2 0.552542 0.613626 0.334267
386 2 0.447458 0.718711 0.334267
113 1 0.666168 0.666168 0.2514
129 1 0.666168 0.666168 0.417133
301 2 0.613626 0.779794 0.334267
344 2 0.779794 0.718711 0.334267
48 1 0.998505 0.666168 0.2514
72 1 0.998505 0.666168 0.417133
174 2 0.945963 0.779794 0.334267
362 2 0.884879 0.613626 0.334267
10 1 0.00149457 0.998505 0.2514
17 1 0.00149457 0.998505 0.417133
57 1 0.167663 0.832337 0.2514
99 1 0.167663 0.832337 0.417133
271 2 0.054037 0.884879 0.334267
54 1 0.333832 0.998505 0.2514
80 1 0.333832 0.998505 0.417133
178 2 0.220205 0.945963 0.334267
359 2 0.386374 0.884879 0.334267
121 1 0.5 0.832337 0.2514
147 1 0.5 0.832337 0.417133
230 2 0.552542 0.945963 0.334267
52 1 0.666168 0.998505 0.2514
76 1 0.666168 0.998505 0.417133
395 2 0.718711 0.884879 0.334267
12 1 0.998505 0.998505 0.2514
19 1 0.998505 0.998505 0.417133
117 1 0.832337 0.832337 0.2514
149 1 0.832337 0.832337 0.417133
275 2 0.884879 0.945963 0.334267
20 1 0.00149457 0.00149457 0.582867
24 1 0.00149457 0.00149457 0.7486
28 1 0.167663 0.167663 0.582867
29 1 0.167663 0.167663 0.7486
276 2 0.115121 0.054037 0.665733
278 2 0.054037 0.115121 0.5
77 1 0.333832 0.00149457 0.582867
87 1 0.333832 0.00149457 0.7486
187 2 0.220205 0.054037 0.5
193 2 0.386374 0.115121 0.5
290 2 0.281289 0.115121 0.665733
96 1 0.5 0.167663 0.7486
97 1 0.5 0.167663 0.582867
231 2 0.447458 0.054037 0.665733
239 2 0.552542 0.054037 0.5
81 1 0.666168 0.00149457 0.582867
89 1 0.666168 0.00149457 0.7486
179 2 0.779794 0.054037 0.665733
246 2 0.718711 0.115121 0.5
254 2 0.613626 0.115121 0.665733
22 1 0.998505 0.00149457 0.582867
26 1 0.998505 0.00149457 0.7486
95 1 0.832337 0.167663 0.582867
98 1 0.832337 0.167663 0.7486
198 2 0.945963 0.115121 0.665733
282 2 0.884879 0.054037 0.5
73 1 0.00149457 0.333832 0.582867
83 1 0.00149457 0.333832 0.7486
175 2 0.054037 0.220205 0.665733
194 2 0.115121 0.386374 0.665733
284 2 0.115121 0.281289 0.5
130 1 0.333832 0.333832 0.582867
137 1 0.333832 0.333832 0.7486
188 2 0.220205 0.386374 0.5
196 2 0.386374 0.220205 0.665733
285 2 0.281289 0.220205 0.5
288 2 0.220205 0.281289 0.665733
308 2 0.552542 0.386374 0.5
332 2 0.447458 0.386374 0.665733
372 2 0.552542 0.281289 0.665733
390 2 0.447458 0.281289 0.5
134 1 0.666168 0.333832 0.582867
135 1 0.666168 0.333832 0.7486
244 2 0.613626 0.220205 0.5
252 2 0.718711 0.220205 0.665733
303 2 0.779794 0.386374 0.665733
368 2 0.779794 0.281289 0.5
74 1 0.998505 0.333832 0.582867
84 1 0.998505 0.333832 0.7486
183 2 0.945963 0.220205 0.5
366 2 0.884879 0.386374 0.5
399 2 0.884879 0.281289 0.665733
91 1 0.167663 0.5 0.582867
94 1 0.167663 0.5 0.7486
227 2 0.054037 0.552542 0.665733
233 2 0.054037 0.447458 0.5
310 2 0.386374 0.552542 0.665733
334 2 0.386374 0.447458 0.5
369 2 0.281289 0.552542 0.5
384 2 0.281289 0.447458 0.665733
139 1 0.5 0.5 0.582867
142 1 0.5 0.5 0.7486
327 2 0.613626 0.447458 0.665733
336 2 0.613626 0.552542 0.5
345 2 0.718711 0.552542 0.665733
388 2 0.718711 0.447458 0.5
143 1 0.832337 0.5 0.582867
146 1 0.832337 0.5 0.7486
225 2 0.945963 0.447458 0.665733
235 2 0.945963 0.552542 0.5
69 1 0.00149457 0.666168 0.582867
85 1 0.00149457 0.666168 0.7486
181 2 0.054037 0.779794 0.5
242 2 0.115121 0.613626 0.5
248 2 0.115121 0.718711 0.665733
132 1 0.333832 0.666168 0.582867
136 1 0.333832 0.666168 0.7486
240 2 0.220205 0.718711 0.5
250 2 0.220205 0.613626 0.665733
304 2 0.386374 0.779794 0.5
374 2 0.281289 0.779794 0.665733
330 2 0.552542 0.613626 0.665733
337 2 0.447458 0.613626 0.5
339 2 0.552542 0.718711 0.5
387 2 0.447458 0.718711 0.665733
128 1 0.666168 0.666168 0.582867
138 1 0.666168 0.666168 0.7486
300 2 0.613626 0.779794 0.665733
306 2 0.779794 0.613626 0.5
342 2 0.718711 0.779794 0.5
343 2 0.779794 0.718711 0.665733
70 1 0.998505 0.666168 0.582867
86 1 0.998505 0.666168 0.7486
173 2 0.945963 0.779794 0.665733
361 2 0.884879 0.613626 0.665733
392 2 0.884879 0.718711 0.5
21 1 0.00149457 0.998505 0.582867
25 1 0.00149457 0.998505 0.7486
92 1 0.167663 0.832337 0.7486
93 1 0.167663 0.832337 0.582867
190 2 0.115121 0.945963 0.5
272 2 0.054037 0.884879 0.665733
78 1 0.333832 0.998505 0.582867
88 1 0.333832 0.998505 0.7486
177 2 0.220205 0.945963 0.665733
360 2 0.386374 0.884879 0.665733
402 2 0.281289 0.884879 0.5
144 1 0.5 0.832337 0.7486
145 1 0.5 0.832337 0.582867
229 2 0.552542 0.945963 0.665733
237 2 0.447458 0.945963 0.5
82 1 0.666168 0.998505 0.582867
90 1 0.666168 0.998505 0.7486
185 2 0.779794 0.945963 0.5
364 2 0.613626 0.884879 0.5
394 2 0.718711 0.884879 0.665733
23 1 0.998505 0.998505 0.582867
27 1 0.998505 0.998505 0.7486
140 1 0.832337 0.832337 0.7486
141 1 0.832337 0.832337 0.582867
274 2 0.884879 0.945963 0.665733
280 2 0.945963 0.884879 0.5
5 1 0.00149457 0.00149457 0.914333
15 1 0.167663 0.167663 0.914333
259 2 0.115121 0.054037 0.9972
279 2 0.054037 0.115121 0.831467
41 1 0.333832 0.00149457 0.914333
184 2 0.220205 0.054037 0.831467
192 2 0.386374 0.115121 0.831467
270 2 0.281289 0.115121 0.9972
65 1 0.5 0.167663 0.914333
205 2 0.447458 0.054037 0.9972
236 2 0.552542 0.054037 0.831467
45 1 0.666168 0.00149457 0.914333
156 2 0.779794 0.054037 0.9972
223 2 0.613626 0.115121 0.9972
245 2 0.718711 0.115121 0.831467
7 1 0.998505 0.00149457 0.914333
66 1 0.832337 0.167663 0.914333
171 2 0.945963 0.115121 0.9972
281 2 0.884879 0.054037 0.831467
37 1 0.00149457 0.333832 0.914333
152 2 0.054037 0.220205 0.9972
167 2 0.115121 0.386374 0.9972
283 2 0.115121 0.281289 0.831467
106 1 0.333832 0.333832 0.914333
169 2 0.386374 0.220205 0.9972
191 2 0.220205 0.386374 0.831467
268 2 0.220205 0.281289 0.9972
286 2 0.281289 0.220205 0.831467
309 2 0.552542 0.386374 0.831467
315 2 0.447458 0.386374 0.9972
356 2 0.552542 0.281289 0.9972
391 2 0.447458 0.281289 0.831467
110 1 0.666168 0.333832 0.914333
221 2 0.718711 0.220205 0.9972
247 2 0.613626 0.220205 0.831467
294 2 0.779794 0.386374 0.9972
367 2 0.779794 0.281289 0.831467
38 1 0.998505 0.333832 0.914333
180 2 0.945963 0.220205 0.831467
365 2 0.884879 0.386374 0.831467
397 2 0.884879 0.281289 0.9972
63 1 0.167663 0.5 0.914333
201 2 0.054037 0.552542 0.9972
234 2 0.054037 0.447458 0.831467
299 2 0.386374 0.552542 0.9972
335 2 0.386374 0.447458 0.831467
370 2 0.281289 0.552542 0.831467
376 2 0.281289 0.447458 0.9972
125 1 0.5 0.5 0.914333
313 2 0.613626 0.447458 0.9972
326 2 0.718711 0.552542 0.9972
333 2 0.613626 0.552542 0.831467
389 2 0.718711 0.447458 0.831467
123 1 0.832337 0.5 0.914333
203 2 0.945963 0.447458 0.9972
232 2 0.945963 0.552542 0.831467
33 1 0.00149457 0.666168 0.914333
182 2 0.054037 0.779794 0.831467
217 2 0.115121 0.718711 0.9972
241 2 0.115121 0.613626 0.831467
108 1 0.333832 0.666168 0.914333
219 2 0.220205 0.613626 0.9972
243 2 0.220205 0.718711 0.831467
305 2 0.386374 0.779794 0.831467
358 2 0.281289 0.779794 0.9972
317 2 0.552542 0.613626 0.9972
338 2 0.447458 0.613626 0.831467
340 2 0.552542 0.718711 0.831467
378 2 0.447458 0.718711 0.9972
104 1 0.666168 0.666168 0.914333
292 2 0.613626 0.779794 0.9972
307 2 0.779794 0.613626 0.831467
324 2 0.779794 0.718711 0.9972
341 2 0.718711 0.779794 0.831467
34 1 0.998505 0.666168 0.914333
154 2 0.945963 0.779794 0.9972
350 2 0.884879 0.613626 0.9972
393 2 0.884879 0.718711 0.831467
6 1 0.00149457 0.998505 0.914333
64 1 0.167663 0.832337 0.914333
189 2 0.115121 0.945963 0.831467
257 2 0.054037 0.884879 0.9972
42 1 0.333832 0.998505 0.914333
158 2 0.220205 0.945963 0.9972
348 2 0.386374 0.884879 0.9972
401 2 0.281289 0.884879 0.831467
124 1 0.5 0.832337 0.914333
207 2 0.552542 0.945963 0.9972
238 2 0.447458 0.945963 0.831467
46 1 0.666168 0.998505 0.914333
186 2 0.779794 0.945963 0.831467
363 2 0.613626 0.884879 0.831467
383 2 0.718711 0.884879 0.9972
8 1 0.998505 0.998505 0.914333
126 1 0.832337 0.832337 0.914333
261 2 0.884879 0.945963 0.9972
277 2 0.945963 0.884879 0.831467
ITEM: TIMESTEP
100
ITEM: NUMBER OF ATOMS
402
ITEM: BOX BOUNDS pp pp pp
-2.7500000000000000e-02 1.8372499999999999e+01
-2.7500000000000000e-02 1.8372499999999999e+01
-4.2000000000000003e-02 1.4958000000000000e+01
ITEM: ATOMS id type xs ys zs
1 1 0.0233523 0.110634 0.0537824
14 1 0.158202 0.244393 0.063904
258 2 0.129136 0.120803 0.102276
263 2 0.0550301 0.172299 0.233755
43 1 0.311592 0.0759659 0.0520414
161 2 0.270467 0.0340245 0.194433
165 2 0.391156 0.144821 0.197257
269 2 0.255219 0.170348 0.112962
60 1 0.449443 0.148151 0.0604591
204 2 0.421488 0.0378548 0.0886486
210 2 0.591725 0.0412808 0.227778
39 1 0.689053 0.0429734 0.0809163
155 2 0.826867 0.0135648 0.0774727
215 2 0.722267 0.12766 0.188308
222 2 0.5865 0.107012 0.0669061
3 1 0.948622 0.0193768 0.0706972
62 1 0.794676 0.136897 0.0631932
170 2 0.912709 0.15236 0.0787267
264 2 0.847939 0.0666737 0.232479
31 1 0.0589957 0.371708 0.074485
151 2 0.0333801 0.25131 0.0539216
166 2 0.140878 0.460543 0.109508
265 2 0.12513 0.305646 0.184372
103 1 0.350019 0.374495 0.111798
163 2 0.240926 0.398841 0.232646
168 2 0.373658 0.249297 0.0658966
266 2 0.298557 0.262261 0.241091
267 2 0.243383 0.330864 0.0803151
297 2 0.555457 0.38679 0.205475
314 2 0.461334 0.378874 0.0590344
355 2 0.527528 0.233393 0.0910886
380 2 0.453246 0.281812 0.229885
107 1 0.605583 0.322198 0.0779015
214 2 0.618888 0.236715 0.22176
220 2 0.693015 0.217669 0.0648859
293 2 0.71522 0.362748 0.101776
353 2 0.756311 0.287052 0.239177
32 1 0.936098 0.345952 0.0892501
159 2 0.956654 0.267421 0.199206
352 2 0.86151 0.391277 0.194609
396 2 0.835894 0.276069 0.0694795
58 1 0.194681 0.5696 0.0648204
200 2 0.0580279 0.573696 0.0520606
209 2 0.0258109 0.423603 0.213779
298 2 0.406401 0.551635 0.0546103
319 2 0.399919 0.455073 0.2032
354 2 0.285562 0.547797 0.234257
375 2 0.286272 0.478538 0.0729059
118 1 0.500652 0.500647 0.137935
312 2 0.593651 0.448004 0.0548288
318 2 0.600558 0.546231 0.203969
325 2 0.711797 0.522391 0.0713768
379 2 0.716738 0.454344 0.233298
122 1 0.816546 0.431447 0.0637186
202 2 0.957111 0.465495 0.0701465
208 2 0.976107 0.573892 0.205783
35 1 0.063172 0.692981 0.0558283
160 2 0.0426318 0.730845 0.19479
213 2 0.138119 0.610792 0.191737
216 2 0.175665 0.730792 0.0878477
109 1 0.398373 0.679172 0.0743585
212 2 0.24842 0.709628 0.250971
218 2 0.289935 0.640803 0.105096
295 2 0.382104 0.762868 0.220468
357 2 0.311722 0.785755 0.0636557
316 2 0.539441 0.622471 0.0577111
320 2 0.446929 0.613745 0.204195
321 2 0.547603 0.719586 0.230007
377 2 0.476057 0.768673 0.0914494
105 1 0.649559 0.624434 0.11113
291 2 0.626586 0.754094 0.0650956
296 2 0.756529 0.604326 0.235453
322 2 0.700881 0.743024 0.237487
323 2 0.751903 0.676059 0.0834375
36 1 0.942923 0.63266 0.0722091
153 2 0.956577 0.755906 0.0527509
349 2 0.849092 0.553078 0.101
381 2 0.874797 0.694416 0.185353
2 1 0.0510286 0.97913 0.0689236
56 1 0.206904 0.868548 0.0644949
164 2 0.152096 0.933137 0.229654
256 2 0.0882714 0.847417 0.0774433
44 1 0.311114 0.955508 0.0818066
157 2 0.172099 0.992209 0.0775833
347 2 0.412561 0.891425 0.0632147
398 2 0.279238 0.871958 0.190036
120 1 0.551174 0.855142 0.0573672
206 2 0.545343 0.969601 0.100865
211 2 0.413322 0.960086 0.225908
40 1 0.665343 0.92603 0.0685512
162 2 0.730534 0.967229 0.195629
351 2 0.609498 0.859921 0.193681
382 2 0.745211 0.839518 0.100354
4 1 0.976256 0.887753 0.0528942
116 1 0.836292 0.7597 0.06916
260 2 0.872652 0.887735 0.109713
262 2 0.943543 0.825621 0.236773
9 1 0.0620155 0.0281654 0.204026
13 1 0.182087 0.18978 0.237115
16 1 0.0280871 0.0870819 0.359196
30 1 0.17995 0.163388 0.413276
273 2 0.148721 0.0732864 0.306511
53 1 0.360199 0.0566848 0.285736
79 1 0.290708 0.0232168 0.401186
289 2 0.278498 0.134879 0.331751
61 1 0.520345 0.150261 0.212377
102 1 0.508361 0.190007 0.428657
228 2 0.470555 0.0783372 0.329187
51 1 0.706118 0.0644513 0.308162
75 1 0.584965 0.0132692 0.406134
176 2 0.808253 0.0587311 0.404304
253 2 0.600248 0.138662 0.348557
11 1 0.964945 0.09533 0.195006
18 1 0.925082 0.0249278 0.362646
59 1 0.839911 0.195563 0.209175
101 1 0.838634 0.17428 0.426235
197 2 0.926282 0.154248 0.326977
49 1 0.0614867 0.289579 0.307002
67 1 0.011391 0.41439 0.413286
172 2 0.065893 0.192739 0.415468
195 2 0.124046 0.400212 0.343385
114 1 0.360558 0.360878 0.271546
127 1 0.323343 0.31439 0.399503
199 2 0.400253 0.211277 0.373892
287 2 0.188527 0.273214 0.358261
329 2 0.453044 0.39253 0.358435
371 2 0.561316 0.291451 0.370741
112 1 0.652137 0.351246 0.280822
131 1 0.683537 0.321705 0.413345
255 2 0.732254 0.188025 0.363946
302 2 0.782465 0.399118 0.373941
50 1 0.951321 0.358152 0.294709
68 1 0.978675 0.284206 0.40832
400 2 0.86615 0.283426 0.348208
55 1 0.173048 0.499889 0.249153
100 1 0.188018 0.488569 0.428645
224 2 0.0777874 0.533467 0.335786
311 2 0.39431 0.548522 0.359152
385 2 0.296902 0.439312 0.378614
115 1 0.499987 0.499911 0.289272
150 1 0.500615 0.500144 0.438998
328 2 0.60709 0.451346 0.358231
346 2 0.703929 0.560034 0.379845
119 1 0.830304 0.506126 0.239394
148 1 0.812783 0.508872 0.426506
226 2 0.920072 0.46787 0.335516
47 1 0.0470305 0.64209 0.292129
71 1 0.0209843 0.715788 0.409123
251 2 0.131752 0.71587 0.347754
111 1 0.352888 0.647105 0.281198
133 1 0.315754 0.677459 0.412249
249 2 0.214915 0.598377 0.375921
373 2 0.266975 0.814931 0.365381
331 2 0.547405 0.608149 0.35834
386 2 0.438909 0.708701 0.371102
113 1 0.639839 0.641941 0.271422
129 1 0.677 0.685365 0.39939
301 2 0.600068 0.78869 0.372808
344 2 0.811014 0.727675 0.355793
48 1 0.939248 0.709493 0.307616
72 1 0.987954 0.586099 0.413893
174 2 0.932837 0.80693 0.416752
362 2 0.877808 0.600139 0.341821
10 1 0.0344093 0.902963 0.194228
17 1 0.0744182 0.975534 0.359406
57 1 0.163453 0.804886 0.219253
99 1 0.160256 0.826933 0.425815
271 2 0.0720834 0.845228 0.325981
54 1 0.295105 0.937939 0.306773
80 1 0.415242 0.986972 0.405357
178 2 0.190815 0.942687 0.40266
359 2 0.399426 0.861772 0.347326
121 1 0.481367 0.847651 0.216097
147 1 0.491745 0.810237 0.427858
230 2 0.531165 0.921503 0.330905
52 1 0.640353 0.944692 0.286415
76 1 0.709396 0.977378 0.401741
395 2 0.720819 0.866079 0.332491
12 1 0.940717 0.972984 0.209049
19 1 0.971922 0.912961 0.361685
117 1 0.812807 0.813209 0.231225
149 1 0.818638 0.836347 0.413003
275 2 0.851858 0.926836 0.309551
20 1 0.0246405 0.0743867 0.637624
24 1 0.0956989 0.0346469 0.804603
28 1 0.175412 0.161825 0.573396
29 1 0.195254 0.159563 0.791596
276 2 0.154144 0.0722859 0.672411
278 2 0.0806495 0.052454 0.49553
77 1 0.286372 0.0204739 0.590956
87 1 0.356971 0.0478372 0.705101
187 2 0.215263 0.0708102 0.49244
193 2 0.369549 0.0917372 0.495836
290 2 0.281125 0.134659 0.653531
96 1 0.507698 0.161138 0.76503
97 1 0.504864 0.179907 0.582719
231 2 0.46754 0.078468 0.665979
239 2 0.51207 0.0786877 0.496341
81 1 0.584155 0.00792922 0.58056
89 1 0.713837 0.0607259 0.695596
179 2 0.805043 0.0662512 0.585296
246 2 0.674275 0.070088 0.494956
254 2 0.605014 0.11565 0.650044
22 1 0.911525 0.0285549 0.640346
26 1 0.971234 0.060575 0.795672
95 1 0.837016 0.179546 0.585584
98 1 0.808887 0.184546 0.763569
198 2 0.927166 0.147599 0.691348
282 2 0.947469 0.0806349 0.504108
73 1 0.00761698 0.418341 0.588072
83 1 0.0625326 0.292964 0.694269
175 2 0.0604659 0.193083 0.596177
194 2 0.127345 0.396011 0.640471
284 2 0.0687791 0.325538 0.497895
130 1 0.323541 0.324329 0.552375
137 1 0.352359 0.322721 0.685062
188 2 0.212435 0.36772 0.491551
196 2 0.3942 0.214949 0.620988
285 2 0.275452 0.219367 0.492842
288 2 0.191227 0.268502 0.633121
308 2 0.562923 0.396065 0.507865
332 2 0.465382 0.396022 0.665698
372 2 0.558635 0.287671 0.619587
390 2 0.444228 0.296164 0.499878
134 1 0.679196 0.324142 0.56399
135 1 0.655603 0.361089 0.68519
244 2 0.630197 0.213488 0.501477
252 2 0.726347 0.191934 0.637639
303 2 0.787763 0.390323 0.623106
368 2 0.781143 0.273706 0.502088
74 1 0.978361 0.291974 0.597987
84 1 0.944619 0.358814 0.713102
183 2 0.929969 0.214911 0.508366
366 2 0.907502 0.369117 0.503335
399 2 0.865597 0.276233 0.668123
91 1 0.183621 0.499042 0.58366
94 1 0.151211 0.481707 0.790339
227 2 0.0804966 0.531454 0.673352
233 2 0.0784749 0.489004 0.499998
310 2 0.392403 0.533871 0.661583
334 2 0.398278 0.438106 0.510866
369 2 0.295616 0.554727 0.505351
384 2 0.283868 0.432672 0.623465
139 1 0.498269 0.499848 0.588703
142 1 0.500101 0.49976 0.766171
327 2 0.605093 0.468836 0.661919
336 2 0.601622 0.562026 0.510367
345 2 0.715882 0.568353 0.622322
388 2 0.704492 0.44525 0.506147
143 1 0.816172 0.501408 0.582419
146 1 0.855242 0.518994 0.794454
225 2 0.921508 0.470611 0.675195
235 2 0.921875 0.510304 0.500076
69 1 0.0208532 0.708275 0.598002
85 1 0.0552523 0.641607 0.712187
181 2 0.07005 0.785175 0.508225
242 2 0.0925 0.630756 0.503949
248 2 0.133883 0.722505 0.666434
132 1 0.321513 0.67637 0.563724
136 1 0.338315 0.645561 0.690689
240 2 0.218946 0.726434 0.500828
250 2 0.214671 0.610407 0.624222
304 2 0.368637 0.786388 0.500761
374 2 0.272057 0.806257 0.641499
330 2 0.533494 0.604351 0.664628
337 2 0.437186 0.604619 0.508092
339 2 0.555856 0.704645 0.500031
387 2 0.440568 0.713137 0.620625
128 1 0.676798 0.676036 0.552076
138 1 0.643555 0.675128 0.682952
300 2 0.605425 0.784574 0.622525
306 2 0.788179 0.632794 0.48929
342 2 0.724407 0.780614 0.492857
343 2 0.809726 0.731335 0.632084
70 1 0.992607 0.58141 0.587992
86 1 0.935831 0.708404 0.694058
173 2 0.940489 0.807627 0.596763
361 2 0.872126 0.603613 0.638215
392 2 0.931247 0.674335 0.498102
21 1 0.0885602 0.97166 0.638035
25 1 0.0283134 0.938939 0.794474
92 1 0.18607 0.808574 0.772651
93 1 0.163557 0.818822 0.585585
190 2 0.0526666 0.919531 0.502484
272 2 0.0738394 0.852761 0.690032
78 1 0.415672 0.991592 0.581259
88 1 0.286816 0.938027 0.694588
177 2 0.195445 0.932314 0.584139
360 2 0.394463 0.881352 0.648385
402 2 0.325556 0.930032 0.494405
144 1 0.491879 0.836622 0.760721
145 1 0.495267 0.819875 0.582271
229 2 0.533121 0.921519 0.665728
237 2 0.48745 0.921229 0.496476
82 1 0.713508 0.978853 0.59129
90 1 0.643523 0.951039 0.705905
185 2 0.784674 0.928964 0.492712
364 2 0.630469 0.907781 0.496565
394 2 0.719193 0.864121 0.653942
23 1 0.975697 0.925975 0.638332
27 1 0.90303 0.963914 0.806825
140 1 0.804376 0.83809 0.788483
141 1 0.825324 0.838421 0.57335
274 2 0.845501 0.927818 0.673159
280 2 0.919328 0.947876 0.497669
5 1 0.0215516 0.0500727 0.930031
15 1 0.138543 0.204542 0.938069
259 2 0.152999 0.0864511 0.920159
279 2 0.0654665 0.15044 0.766228
41 1 0.338731 0.0606131 0.912849
184 2 0.265643 0.04202 0.801379
192 2 0.387149 0.138746 0.803306
270 2 0.277382 0.162433 0.935951
65 1 0.427498 0.182239 0.933204
205 2 0.457923 0.0467819 0.928084
236 2 0.576373 0.0260464 0.791323
45 1 0.629369 0.0561391 0.931662
156 2 0.752387 0.040936 0.947281
223 2 0.552816 0.148994 0.902484
245 2 0.696616 0.124879 0.817275
7 1 0.887465 0.0267878 0.944479
66 1 0.751916 0.166314 0.936165
171 2 0.883057 0.135728 0.896422
281 2 0.829908 0.056505 0.769209
37 1 0.0440846 0.309931 0.918664
152 2 0.0156064 0.171269 0.92394
167 2 0.111768 0.404145 0.943731
283 2 0.123078 0.273559 0.813606
106 1 0.3504 0.402993 0.96124
169 2 0.365484 0.292541 0.903806
191 2 0.218402 0.377485 0.768234
268 2 0.223707 0.30299 0.926774
286 2 0.285786 0.245601 0.767689
309 2 0.583368 0.369592 0.794836
315 2 0.473345 0.418596 0.887468
356 2 0.517014 0.28433 0.93309
391 2 0.456805 0.274194 0.765621
110 1 0.615779 0.361047 0.941575
221 2 0.665464 0.256768 0.914648
247 2 0.60791 0.229504 0.757538
294 2 0.745727 0.385014 0.934724
367 2 0.736233 0.300376 0.763825
38 1 0.924957 0.296154 0.957416
180 2 0.962699 0.267928 0.80735
365 2 0.856448 0.388702 0.803671
397 2 0.824465 0.260139 0.893018
63 1 0.149335 0.542743 0.937941
201 2 0.0326308 0.528265 0.889889
234 2 0.0401647 0.410813 0.777095
299 2 0.372887 0.520073 0.896176
335 2 0.358977 0.411543 0.78515
370 2 0.267747 0.539831 0.761366
376 2 0.2372 0.456896 0.91483
125 1 0.500328 0.500261 0.988404
313 2 0.626252 0.479215 0.893915
326 2 0.765665 0.542227 0.915275
333 2 0.642406 0.589559 0.785738
389 2 0.731743 0.46133 0.760014
123 1 0.850517 0.453141 0.935188
203 2 0.959184 0.405592 0.919944
232 2 0.958999 0.595321 0.774103
33 1 0.0716574 0.653876 0.920545
182 2 0.0371552 0.733028 0.805682
217 2 0.161592 0.736187 0.917731
241 2 0.140684 0.611992 0.807733
108 1 0.380359 0.638765 0.939676
219 2 0.252199 0.614775 0.93664
243 2 0.25558 0.701369 0.774232
305 2 0.39017 0.768481 0.759525
358 2 0.329739 0.743087 0.914081
317 2 0.526716 0.582271 0.887393
338 2 0.416384 0.627453 0.794606
340 2 0.543089 0.724031 0.768987
378 2 0.478066 0.715622 0.933368
104 1 0.649504 0.593898 0.960795
292 2 0.637893 0.704535 0.905968
307 2 0.783913 0.619246 0.767525
324 2 0.783055 0.688009 0.929403
341 2 0.714191 0.74856 0.765226
34 1 0.959651 0.690174 0.920323
154 2 0.988116 0.829197 0.921221
350 2 0.900917 0.584274 0.936975
393 2 0.876542 0.726957 0.814428
6 1 0.113287 0.972698 0.944965
64 1 0.244188 0.833474 0.93646
189 2 0.1709 0.942216 0.766345
257 2 0.119509 0.865713 0.895123
42 1 0.370869 0.941928 0.9288
158 2 0.249797 0.962572 0.948749
348 2 0.449612 0.85334 0.897993
401 2 0.301467 0.874636 0.817894
124 1 0.568816 0.809208 0.930008
207 2 0.56056 0.942408 0.934925
238 2 0.423119 0.971344 0.787354
46 1 0.67879 0.939011 0.928447
186 2 0.733912 0.956659 0.802617
363 2 0.614064 0.859215 0.803195
383 2 0.726053 0.829286 0.928361
8 1 0.978554 0.949407 0.929343
126 1 0.863098 0.792372 0.939609
261 2 0.846811 0.911356 0.924642
277 2 0.934034 0.849885 0.76699
ITEM: TIMESTEP
200
ITEM: NUMBER OF ATOMS
402
ITEM: BOX BOUNDS pp pp pp
-2.7500000000000000e-02 1.8372499999999999e+01
-2.7500000000000000e-02 1.8372499999999999e+01
-4.2000000000000003e-02 1.4958000000000000e+01
ITEM: ATOMS id type xs ys zs
1 1 0.0476058 0.062327 0.0123562
14 1 0.141933 0.267142 0.0151833
258 2 0.121667 0.145143 0.0771803
263 2 0.0342369 0.199067 0.223856
43 1 0.231586 0.0647764 0.0323496
161 2 0.222353 0.0581527 0.193681
165 2 0.396351 0.162272 0.17352
269 2 0.260189 0.184386 0.0894554
60 1 0.398226 0.131662 0.0188534
204 2 0.34779 0.0358415 0.0886881
210 2 0.612607 0.0785317 0.269158
39 1 0.722725 0.0247209 0.101679
155 2 0.853482 0.974932 0.0859945
215 2 0.729168 0.133066 0.171321
222 2 0.605572 0.0694652 0.0607409
3 1 0.985181 0.984614 0.100678
62 1 0.834062 0.134035 0.0919251
170 2 0.963551 0.110282 0.0957622
264 2 0.861505 0.0765146 0.231362
31 1 0.0522757 0.369733 0.0866858
151 2 0.0225644 0.254703 0.0484377
166 2 0.134901 0.459258 0.102005
265 2 0.130114 0.302307 0.169861
103 1 0.349449 0.355939 0.121526
163 2 0.231902 0.400442 0.217968
168 2 0.376684 0.259085 0.0173535
266 2 0.296847 0.270137 0.220373
267 2 0.237454 0.335269 0.0480872
297 2 0.573114 0.384959 0.191921
314 2 0.459447 0.393132 0.0350376
355 2 0.507972 0.174088 0.0364229
380 2 0.457818 0.28797 0.184197
107 1 0.544479 0.296745 0.0777681
214 2 0.607236 0.220763 0.168077
220 2 0.686658 0.189116 0.018005
293 2 0.663436 0.332935 0.0501653
353 2 0.747777 0.286346 0.187368
32 1 0.937079 0.33281 0.087363
159 2 0.891797 0.230435 0.163302
352 2 0.862478 0.392009 0.177647
396 2 0.813533 0.290255 0.0287167
58 1 0.195048 0.551055 0.0175521
200 2 0.0576007 0.62234 0.0252311
209 2 0.018491 0.410738 0.221095
298 2 0.41703 0.54003 0.0639062
319 2 0.411008 0.441371 0.204848
354 2 0.286657 0.533582 0.253835
375 2 0.293265 0.479415 0.0817856
118 1 0.521988 0.492669 0.12746
312 2 0.602941 0.461855 0.0167238
318 2 0.626823 0.531732 0.19937
325 2 0.73472 0.456722 0.089461
379 2 0.723609 0.415272 0.261264
122 1 0.84775 0.416213 0.0290841
202 2 0.978939 0.465123 0.0396499
208 2 0.0220001 0.560192 0.174557
35 1 0.076622 0.74953 0.0324996
160 2 0.99875 0.710554 0.185273
213 2 0.177573 0.601213 0.158087
216 2 0.138653 0.749795 0.168419
109 1 0.438815 0.662043 0.0738791
212 2 0.244304 0.69557 0.293279
218 2 0.321407 0.639799 0.131044
295 2 0.377062 0.748584 0.235085
357 2 0.278221 0.776433 0.101229
316 2 0.558457 0.61035 0.0490626
320 2 0.469701 0.607154 0.214867
321 2 0.530659 0.748588 0.269831
377 2 0.474704 0.769462 0.109408
105 1 0.584144 0.664913 0.17615
291 2 0.609228 0.768675 0.0538761
296 2 0.786474 0.550598 0.235829
322 2 0.679399 0.749272 0.210787
323 2 0.705396 0.622041 0.088986
36 1 0.940396 0.628688 0.0873938
153 2 0.951254 0.740429 0.0176236
349 2 0.861542 0.537483 0.0849723
381 2 0.838269 0.682655 0.145976
2 1 0.0609885 0.928724 0.96357
56 1 0.177481 0.857788 0.0947061
164 2 0.140493 0.926053 0.216332
256 2 0.0453435 0.860817 0.0951774
44 1 0.270344 0.949659 0.157956
157 2 0.13765 0.986099 0.0472654
347 2 0.388802 0.88362 0.0961246
398 2 0.264944 0.851333 0.245093
120 1 0.512158 0.898434 0.0810704
206 2 0.494738 0.00414514 0.172706
211 2 0.370166 0.959939 0.258784
40 1 0.619622 0.984627 0.165805
162 2 0.744807 0.985239 0.246398
351 2 0.583405 0.870719 0.201545
382 2 0.713349 0.8871 0.12928
4 1 0.930719 0.879069 0.0517841
116 1 0.729242 0.747886 0.0678761
260 2 0.825005 0.823458 0.0773514
262 2 0.921384 0.842627 0.202333
9 1 0.0901537 0.0437366 0.171954
13 1 0.180172 0.191502 0.220877
16 1 0.0222608 0.0983535 0.387252
30 1 0.181839 0.17186 0.418692
273 2 0.12761 0.098634 0.310361
53 1 0.341356 0.0726573 0.234631