ITEM: TIMESTEP
0
ITEM: NUMBER OF ATOMS
768
ITEM: BOX BOUNDS pp pp pp
-4.9378600000000000e-01 2.4006214000000000e+01
-4.9378600000000000e-01 2.4006214000000000e+01
-6.3124999999999998e-01 1.9268750000000001e+01
ITEM: ATOMS id type xs ys zs
321 2 0.0596473 0.10556 0.156595
385 2 0.10556 0.0596473 0.0317211
513 1 0.0201545 0.0201545 0.0941583
65 2 0.184545 0.0596473 0.156595
193 2 0.230458 0.10556 0.0317211
529 1 0.26995 0.0201545 0.0941583
337 2 0.309443 0.10556 0.156595
401 2 0.355356 0.0596473 0.0317211
81 2 0.434341 0.0596473 0.156595
209 2 0.480254 0.10556 0.0317211
353 2 0.559239 0.10556 0.156595
545 1 0.519746 0.0201545 0.0941583
97 2 0.684137 0.0596473 0.156595
417 2 0.605152 0.0596473 0.0317211
225 2 0.73005 0.10556 0.0317211
369 2 0.809035 0.10556 0.156595
433 2 0.854948 0.0596473 0.0317211
561 1 0.769542 0.0201545 0.0941583
113 2 0.933933 0.0596473 0.156595
241 2 0.979845 0.10556 0.0317211
1 2 0.0596473 0.184545 0.0317211
129 2 0.10556 0.230458 0.156595
517 1 0.0201545 0.26995 0.0941583
257 2 0.184545 0.230458 0.0317211
449 2 0.230458 0.184545 0.156595
533 1 0.26995 0.26995 0.0941583
705 1 0.145052 0.145052 0.0941583
17 2 0.309443 0.184545 0.0317211
145 2 0.355356 0.230458 0.156595
721 1 0.394848 0.145052 0.0941583
33 2 0.559239 0.184545 0.0317211
273 2 0.434341 0.230458 0.0317211
465 2 0.480254 0.184545 0.156595
549 1 0.519746 0.26995 0.0941583
161 2 0.605152 0.230458 0.156595
289 2 0.684137 0.230458 0.0317211
737 1 0.644644 0.145052 0.0941583
49 2 0.809035 0.184545 0.0317211
177 2 0.854948 0.230458 0.156595
481 2 0.73005 0.184545 0.156595
565 1 0.769542 0.26995 0.0941583
305 2 0.933933 0.230458 0.0317211
497 2 0.979845 0.184545 0.156595
753 1 0.89444 0.145052 0.0941583
325 2 0.0596473 0.355356 0.156595
389 2 0.10556 0.309443 0.0317211
69 2 0.184545 0.309443 0.156595
197 2 0.230458 0.355356 0.0317211
709 1 0.145052 0.394848 0.0941583
341 2 0.309443 0.355356 0.156595
405 2 0.355356 0.309443 0.0317211
725 1 0.394848 0.394848 0.0941583
85 2 0.434341 0.309443 0.156595
213 2 0.480254 0.355356 0.0317211
357 2 0.559239 0.355356 0.156595
101 2 0.684137 0.309443 0.156595
421 2 0.605152 0.309443 0.0317211
741 1 0.644644 0.394848 0.0941583
229 2 0.73005 0.355356 0.0317211
373 2 0.809035 0.355356 0.156595
437 2 0.854948 0.309443 0.0317211
117 2 0.933933 0.309443 0.156595
245 2 0.979845 0.355356 0.0317211
757 1 0.89444 0.394848 0.0941583
5 2 0.0596473 0.434341 0.0317211
133 2 0.10556 0.480254 0.156595
393 2 0.10556 0.559239 0.0317211
521 1 0.0201545 0.519746 0.0941583
73 2 0.184545 0.559239 0.156595
261 2 0.184545 0.480254 0.0317211
453 2 0.230458 0.434341 0.156595
537 1 0.26995 0.519746 0.0941583
21 2 0.309443 0.434341 0.0317211
149 2 0.355356 0.480254 0.156595
409 2 0.355356 0.559239 0.0317211
37 2 0.559239 0.434341 0.0317211
89 2 0.434341 0.559239 0.156595
277 2 0.434341 0.480254 0.0317211
469 2 0.480254 0.434341 0.156595
553 1 0.519746 0.519746 0.0941583
105 2 0.684137 0.559239 0.156595
165 2 0.605152 0.480254 0.156595
293 2 0.684137 0.480254 0.0317211
425 2 0.605152 0.559239 0.0317211
53 2 0.809035 0.434341 0.0317211
181 2 0.854948 0.480254 0.156595
441 2 0.854948 0.559239 0.0317211
485 2 0.73005 0.434341 0.156595
569 1 0.769542 0.519746 0.0941583
121 2 0.933933 0.559239 0.156595
309 2 0.933933 0.480254 0.0317211
501 2 0.979845 0.434341 0.156595
9 2 0.0596473 0.684137 0.0317211
329 2 0.0596473 0.605152 0.156595
201 2 0.230458 0.605152 0.0317211
457 2 0.230458 0.684137 0.156595
713 1 0.145052 0.644644 0.0941583
25 2 0.309443 0.684137 0.0317211
345 2 0.309443 0.605152 0.156595
729 1 0.394848 0.644644 0.0941583
41 2 0.559239 0.684137 0.0317211
217 2 0.480254 0.605152 0.0317211
361 2 0.559239 0.605152 0.156595
473 2 0.480254 0.684137 0.156595
745 1 0.644644 0.644644 0.0941583
57 2 0.809035 0.684137 0.0317211
233 2 0.73005 0.605152 0.0317211
377 2 0.809035 0.605152 0.156595
489 2 0.73005 0.684137 0.156595
249 2 0.979845 0.605152 0.0317211
505 2 0.979845 0.684137 0.156595
761 1 0.89444 0.644644 0.0941583
137 2 0.10556 0.73005 0.156595
333 2 0.0596473 0.854948 0.156595
397 2 0.10556 0.809035 0.0317211
525 1 0.0201545 0.769542 0.0941583
77 2 0.184545 0.809035 0.156595
205 2 0.230458 0.854948 0.0317211
265 2 0.184545 0.73005 0.0317211
541 1 0.26995 0.769542 0.0941583
153 2 0.355356 0.73005 0.156595
349 2 0.309443 0.854948 0.156595
413 2 0.355356 0.809035 0.0317211
93 2 0.434341 0.809035 0.156595
221 2 0.480254 0.854948 0.0317211
281 2 0.434341 0.73005 0.0317211
365 2 0.559239 0.854948 0.156595
557 1 0.519746 0.769542 0.0941583
109 2 0.684137 0.809035 0.156595
169 2 0.605152 0.73005 0.156595
297 2 0.684137 0.73005 0.0317211
429 2 0.605152 0.809035 0.0317211
185 2 0.854948 0.73005 0.156595
237 2 0.73005 0.854948 0.0317211
381 2 0.809035 0.854948 0.156595
445 2 0.854948 0.809035 0.0317211
573 1 0.769542 0.769542 0.0941583
125 2 0.933933 0.809035 0.156595
253 2 0.979845 0.854948 0.0317211
313 2 0.933933 0.73005 0.0317211
13 2 0.0596473 0.933933 0.0317211
141 2 0.10556 0.979845 0.156595
269 2 0.184545 0.979845 0.0317211
461 2 0.230458 0.933933 0.156595
717 1 0.145052 0.89444 0.0941583
29 2 0.309443 0.933933 0.0317211
157 2 0.355356 0.979845 0.156595
733 1 0.394848 0.89444 0.0941583
45 2 0.559239 0.933933 0.0317211
285 2 0.434341 0.979845 0.0317211
477 2 0.480254 0.933933 0.156595
173 2 0.605152 0.979845 0.156595
301 2 0.684137 0.979845 0.0317211
749 1 0.644644 0.89444 0.0941583
61 2 0.809035 0.933933 0.0317211
189 2 0.854948 0.979845 0.156595
493 2 0.73005 0.933933 0.156595
317 2 0.933933 0.979845 0.0317211
509 2 0.979845 0.933933 0.156595
765 1 0.89444 0.89444 0.0941583
386 2 0.10556 0.0596473 0.28147
514 1 0.0201545 0.0201545 0.343907
641 1 0.0201545 0.0201545 0.219033
194 2 0.230458 0.10556 0.28147
530 1 0.26995 0.0201545 0.343907
657 1 0.26995 0.0201545 0.219033
402 2 0.355356 0.0596473 0.28147
210 2 0.480254 0.10556 0.28147
546 1 0.519746 0.0201545 0.343907
673 1 0.519746 0.0201545 0.219033
418 2 0.605152 0.0596473 0.28147
226 2 0.73005 0.10556 0.28147
434 2 0.854948 0.0596473 0.28147
562 1 0.769542 0.0201545 0.343907
689 1 0.769542 0.0201545 0.219033
242 2 0.979845 0.10556 0.28147
2 2 0.0596473 0.184545 0.28147
518 1 0.0201545 0.26995 0.343907
645 1 0.0201545 0.26995 0.219033
258 2 0.184545 0.230458 0.28147
534 1 0.26995 0.26995 0.343907
577 1 0.145052 0.145052 0.219033
661 1 0.26995 0.26995 0.219033
706 1 0.145052 0.145052 0.343907
18 2 0.309443 0.184545 0.28147
593 1 0.394848 0.145052 0.219033
722 1 0.394848 0.145052 0.343907
34 2 0.559239 0.184545 0.28147
274 2 0.434341 0.230458 0.28147
550 1 0.519746 0.26995 0.343907
677 1 0.519746 0.26995 0.219033
290 2 0.684137 0.230458 0.28147
609 1 0.644644 0.145052 0.219033
738 1 0.644644 0.145052 0.343907
50 2 0.809035 0.184545 0.28147
566 1 0.769542 0.26995 0.343907
693 1 0.769542 0.26995 0.219033
306 2 0.933933 0.230458 0.28147
625 1 0.89444 0.145052 0.219033
754 1 0.89444 0.145052 0.343907
390 2 0.10556 0.309443 0.28147
198 2 0.230458 0.355356 0.28147
581 1 0.145052 0.394848 0.219033
710 1 0.145052 0.394848 0.343907
406 2 0.355356 0.309443 0.28147
597 1 0.394848 0.394848 0.219033
726 1 0.394848 0.394848 0.343907
214 2 0.480254 0.355356 0.28147
422 2 0.605152 0.309443 0.28147
613 1 0.644644 0.394848 0.219033
742 1 0.644644 0.394848 0.343907
230 2 0.73005 0.355356 0.28147
438 2 0.854948 0.309443 0.28147
246 2 0.979845 0.355356 0.28147
629 1 0.89444 0.394848 0.219033
758 1 0.89444 0.394848 0.343907
6 2 0.0596473 0.434341 0.28147
394 2 0.10556 0.559239 0.28147
522 1 0.0201545 0.519746 0.343907
649 1 0.0201545 0.519746 0.219033
262 2 0.184545 0.480254 0.28147
538 1 0.26995 0.519746 0.343907
665 1 0.26995 0.519746 0.219033
22 2 0.309443 0.434341 0.28147
410 2 0.355356 0.559239 0.28147
38 2 0.559239 0.434341 0.28147
278 2 0.434341 0.480254 0.28147
554 1 0.519746 0.519746 0.343907
681 1 0.519746 0.519746 0.219033
294 2 0.684137 0.480254 0.28147
426 2 0.605152 0.559239 0.28147
54 2 0.809035 0.434341 0.28147
442 2 0.854948 0.559239 0.28147
570 1 0.769542 0.519746 0.343907
697 1 0.769542 0.519746 0.219033
310 2 0.933933 0.480254 0.28147
10 2 0.0596473 0.684137 0.28147
202 2 0.230458 0.605152 0.28147
585 1 0.145052 0.644644 0.219033
714 1 0.145052 0.644644 0.343907
26 2 0.309443 0.684137 0.28147
601 1 0.394848 0.644644 0.219033
730 1 0.394848 0.644644 0.343907
42 2 0.559239 0.684137 0.28147
218 2 0.480254 0.605152 0.28147
617 1 0.644644 0.644644 0.219033
746 1 0.644644 0.644644 0.343907
58 2 0.809035 0.684137 0.28147
234 2 0.73005 0.605152 0.28147
250 2 0.979845 0.605152 0.28147
633 1 0.89444 0.644644 0.219033
762 1 0.89444 0.644644 0.343907
398 2 0.10556 0.809035 0.28147
526 1 0.0201545 0.769542 0.343907
653 1 0.0201545 0.769542 0.219033
206 2 0.230458 0.854948 0.28147
266 2 0.184545 0.73005 0.28147
542 1 0.26995 0.769542 0.343907
669 1 0.26995 0.769542 0.219033
414 2 0.355356 0.809035 0.28147
222 2 0.480254 0.854948 0.28147
282 2 0.434341 0.73005 0.28147
558 1 0.519746 0.769542 0.343907
685 1 0.519746 0.769542 0.219033
298 2 0.684137 0.73005 0.28147
430 2 0.605152 0.809035 0.28147
238 2 0.73005 0.854948 0.28147
446 2 0.854948 0.809035 0.28147
574 1 0.769542 0.769542 0.343907
701 1 0.769542 0.769542 0.219033
254 2 0.979845 0.854948 0.28147
314 2 0.933933 0.73005 0.28147
14 2 0.0596473 0.933933 0.28147
270 2 0.184545 0.979845 0.28147
589 1 0.145052 0.89444 0.219033
718 1 0.145052 0.89444 0.343907
30 2 0.309443 0.933933 0.28147
605 1 0.394848 0.89444 0.219033
734 1 0.394848 0.89444 0.343907
46 2 0.559239 0.933933 0.28147
286 2 0.434341 0.979845 0.28147
302 2 0.684137 0.979845 0.28147
621 1 0.644644 0.89444 0.219033
750 1 0.644644 0.89444 0.343907
62 2 0.809035 0.933933 0.28147
318 2 0.933933 0.979845 0.28147
637 1 0.89444 0.89444 0.219033
766 1 0.89444 0.89444 0.343907
322 2 0.0596473 0.10556 0.406344
387 2 0.10556 0.0596473 0.531219
515 1 0.0201545 0.0201545 0.593656
642 1 0.0201545 0.0201545 0.468781
66 2 0.184545 0.0596473 0.406344
195 2 0.230458 0.10556 0.531219
531 1 0.26995 0.0201545 0.593656
658 1 0.26995 0.0201545 0.468781
338 2 0.309443 0.10556 0.406344
403 2 0.355356 0.0596473 0.531219
82 2 0.434341 0.0596473 0.406344
211 2 0.480254 0.10556 0.531219
354 2 0.559239 0.10556 0.406344
547 1 0.519746 0.0201545 0.593656
674 1 0.519746 0.0201545 0.468781
98 2 0.684137 0.0596473 0.406344
419 2 0.605152 0.0596473 0.531219
227 2 0.73005 0.10556 0.531219
370 2 0.809035 0.10556 0.406344
435 2 0.854948 0.0596473 0.531219
563 1 0.769542 0.0201545 0.593656
690 1 0.769542 0.0201545 0.468781
114 2 0.933933 0.0596473 0.406344
243 2 0.979845 0.10556 0.531219
3 2 0.0596473 0.184545 0.531219
130 2 0.10556 0.230458 0.406344
519 1 0.0201545 0.26995 0.593656
646 1 0.0201545 0.26995 0.468781
259 2 0.184545 0.230458 0.531219
450 2 0.230458 0.184545 0.406344
535 1 0.26995 0.26995 0.593656
578 1 0.145052 0.145052 0.468781
662 1 0.26995 0.26995 0.468781
707 1 0.145052 0.145052 0.593656
19 2 0.309443 0.184545 0.531219
146 2 0.355356 0.230458 0.406344
594 1 0.394848 0.145052 0.468781
723 1 0.394848 0.145052 0.593656
35 2 0.559239 0.184545 0.531219
275 2 0.434341 0.230458 0.531219
466 2 0.480254 0.184545 0.406344
551 1 0.519746 0.26995 0.593656
678 1 0.519746 0.26995 0.468781
162 2 0.605152 0.230458 0.406344
291 2 0.684137 0.230458 0.531219
610 1 0.644644 0.145052 0.468781
739 1 0.644644 0.145052 0.593656
51 2 0.809035 0.184545 0.531219
178 2 0.854948 0.230458 0.406344
482 2 0.73005 0.184545 0.406344
567 1 0.769542 0.26995 0.593656
694 1 0.769542 0.26995 0.468781
307 2 0.933933 0.230458 0.531219
498 2 0.979845 0.184545 0.406344
626 1 0.89444 0.145052 0.468781
755 1 0.89444 0.145052 0.593656
326 2 0.0596473 0.355356 0.406344
391 2 0.10556 0.309443 0.531219
70 2 0.184545 0.309443 0.406344
199 2 0.230458 0.355356 0.531219
582 1 0.145052 0.394848 0.468781
711 1 0.145052 0.394848 0.593656
342 2 0.309443 0.355356 0.406344
407 2 0.355356 0.309443 0.531219
598 1 0.394848 0.394848 0.468781
727 1 0.394848 0.394848 0.593656
86 2 0.434341 0.309443 0.406344
215 2 0.480254 0.355356 0.531219
358 2 0.559239 0.355356 0.406344
102 2 0.684137 0.309443 0.406344
423 2 0.605152 0.309443 0.531219
614 1 0.644644 0.394848 0.468781
743 1 0.644644 0.394848 0.593656
231 2 0.73005 0.355356 0.531219
374 2 0.809035 0.355356 0.406344
439 2 0.854948 0.309443 0.531219
118 2 0.933933 0.309443 0.406344
247 2 0.979845 0.355356 0.531219
630 1 0.89444 0.394848 0.468781
759 1 0.89444 0.394848 0.593656
7 2 0.0596473 0.434341 0.531219
134 2 0.10556 0.480254 0.406344
395 2 0.10556 0.559239 0.531219
523 1 0.0201545 0.519746 0.593656
650 1 0.0201545 0.519746 0.468781
74 2 0.184545 0.559239 0.406344
263 2 0.184545 0.480254 0.531219
454 2 0.230458 0.434341 0.406344
539 1 0.26995 0.519746 0.593656
666 1 0.26995 0.519746 0.468781
23 2 0.309443 0.434341 0.531219
150 2 0.355356 0.480254 0.406344
411 2 0.355356 0.559239 0.531219
39 2 0.559239 0.434341 0.531219
90 2 0.434341 0.559239 0.406344
279 2 0.434341 0.480254 0.531219
470 2 0.480254 0.434341 0.406344
555 1 0.519746 0.519746 0.593656
682 1 0.519746 0.519746 0.468781
106 2 0.684137 0.559239 0.406344
166 2 0.605152 0.480254 0.406344
295 2 0.684137 0.480254 0.531219
427 2 0.605152 0.559239 0.531219
55 2 0.809035 0.434341 0.531219
182 2 0.854948 0.480254 0.406344
443 2 0.854948 0.559239 0.531219
486 2 0.73005 0.434341 0.406344
571 1 0.769542 0.519746 0.593656
698 1 0.769542 0.519746 0.468781
122 2 0.933933 0.559239 0.406344
311 2 0.933933 0.480254 0.531219
502 2 0.979845 0.434341 0.406344
11 2 0.0596473 0.684137 0.531219
330 2 0.0596473 0.605152 0.406344
203 2 0.230458 0.605152 0.531219
458 2 0.230458 0.684137 0.406344
586 1 0.145052 0.644644 0.468781
715 1 0.145052 0.644644 0.593656
27 2 0.309443 0.684137 0.531219
346 2 0.309443 0.605152 0.406344
602 1 0.394848 0.644644 0.468781
731 1 0.394848 0.644644 0.593656
43 2 0.559239 0.684137 0.531219
219 2 0.480254 0.605152 0.531219
362 2 0.559239 0.605152 0.406344
474 2 0.480254 0.684137 0.406344
618 1 0.644644 0.644644 0.468781
747 1 0.644644 0.644644 0.593656
59 2 0.809035 0.684137 0.531219
235 2 0.73005 0.605152 0.531219
378 2 0.809035 0.605152 0.406344
490 2 0.73005 0.684137 0.406344
251 2 0.979845 0.605152 0.531219
506 2 0.979845 0.684137 0.406344
634 1 0.89444 0.644644 0.468781
763 1 0.89444 0.644644 0.593656
138 2 0.10556 0.73005 0.406344
334 2 0.0596473 0.854948 0.406344
399 2 0.10556 0.809035 0.531219
527 1 0.0201545 0.769542 0.593656
654 1 0.0201545 0.769542 0.468781
78 2 0.184545 0.809035 0.406344
207 2 0.230458 0.854948 0.531219
267 2 0.184545 0.73005 0.531219
543 1 0.26995 0.769542 0.593656
670 1 0.26995 0.769542 0.468781
154 2 0.355356 0.73005 0.406344
350 2 0.309443 0.854948 0.406344
415 2 0.355356 0.809035 0.531219
94 2 0.434341 0.809035 0.406344
223 2 0.480254 0.854948 0.531219
283 2 0.434341 0.73005 0.531219
366 2 0.559239 0.854948 0.406344
559 1 0.519746 0.769542 0.593656
686 1 0.519746 0.769542 0.468781
110 2 0.684137 0.809035 0.406344
170 2 0.605152 0.73005 0.406344
299 2 0.684137 0.73005 0.531219
431 2 0.605152 0.809035 0.531219
186 2 0.854948 0.73005 0.406344
239 2 0.73005 0.854948 0.531219
382 2 0.809035 0.854948 0.406344
447 2 0.854948 0.809035 0.531219
575 1 0.769542 0.769542 0.593656
702 1 0.769542 0.769542 0.468781
126 2 0.933933 0.809035 0.406344
255 2 0.979845 0.854948 0.531219
315 2 0.933933 0.73005 0.531219
15 2 0.0596473 0.933933 0.531219
142 2 0.10556 0.979845 0.406344
271 2 0.184545 0.979845 0.531219
462 2 0.230458 0.933933 0.406344
590 1 0.145052 0.89444 0.468781
719 1 0.145052 0.89444 0.593656
31 2 0.309443 0.933933 0.531219
158 2 0.355356 0.979845 0.406344
606 1 0.394848 0.89444 0.468781
735 1 0.394848 0.89444 0.593656
47 2 0.559239 0.933933 0.531219
287 2 0.434341 0.979845 0.531219
478 2 0.480254 0.933933 0.406344
174 2 0.605152 0.979845 0.406344
303 2 0.684137 0.979845 0.531219
622 1 0.644644 0.89444 0.468781
751 1 0.644644 0.89444 0.593656
63 2 0.809035 0.933933 0.531219
190 2 0.854948 0.979845 0.406344
494 2 0.73005 0.933933 0.406344
319 2 0.933933 0.979845 0.531219
510 2 0.979845 0.933933 0.406344
638 1 0.89444 0.89444 0.468781
767 1 0.89444 0.89444 0.593656
323 2 0.0596473 0.10556 0.656093
388 2 0.10556 0.0596473 0.780967
643 1 0.0201545 0.0201545 0.71853
67 2 0.184545 0.0596473 0.656093
196 2 0.230458 0.10556 0.780967
659 1 0.26995 0.0201545 0.71853
339 2 0.309443 0.10556 0.656093
404 2 0.355356 0.0596473 0.780967
83 2 0.434341 0.0596473 0.656093
212 2 0.480254 0.10556 0.780967
355 2 0.559239 0.10556 0.656093
675 1 0.519746 0.0201545 0.71853
99 2 0.684137 0.0596473 0.656093
420 2 0.605152 0.0596473 0.780967
228 2 0.73005 0.10556 0.780967
371 2 0.809035 0.10556 0.656093
436 2 0.854948 0.0596473 0.780967
691 1 0.769542 0.0201545 0.71853
115 2 0.933933 0.0596473 0.656093
244 2 0.979845 0.10556 0.780967
4 2 0.0596473 0.184545 0.780967
131 2 0.10556 0.230458 0.656093
647 1 0.0201545 0.26995 0.71853
260 2 0.184545 0.230458 0.780967
451 2 0.230458 0.184545 0.656093
579 1 0.145052 0.145052 0.71853
663 1 0.26995 0.26995 0.71853
20 2 0.309443 0.184545 0.780967
147 2 0.355356 0.230458 0.656093
595 1 0.394848 0.145052 0.71853
36 2 0.559239 0.184545 0.780967
276 2 0.434341 0.230458 0.780967
467 2 0.480254 0.184545 0.656093
679 1 0.519746 0.26995 0.71853
163 2 0.605152 0.230458 0.656093
292 2 0.684137 0.230458 0.780967
611 1 0.644644 0.145052 0.71853
52 2 0.809035 0.184545 0.780967
179 2 0.854948 0.230458 0.656093
483 2 0.73005 0.184545 0.656093
695 1 0.769542 0.26995 0.71853
308 2 0.933933 0.230458 0.780967
499 2 0.979845 0.184545 0.656093
627 1 0.89444 0.145052 0.71853
327 2 0.0596473 0.355356 0.656093
392 2 0.10556 0.309443 0.780967
71 2 0.184545 0.309443 0.656093
200 2 0.230458 0.355356 0.780967
583 1 0.145052 0.394848 0.71853
343 2 0.309443 0.355356 0.656093
408 2 0.355356 0.309443 0.780967
599 1 0.394848 0.394848 0.71853
87 2 0.434341 0.309443 0.656093
216 2 0.480254 0.355356 0.780967
359 2 0.559239 0.355356 0.656093
103 2 0.684137 0.309443 0.656093
424 2 0.605152 0.309443 0.780967
615 1 0.644644 0.394848 0.71853
232 2 0.73005 0.355356 0.780967
375 2 0.809035 0.355356 0.656093
440 2 0.854948 0.309443 0.780967
119 2 0.933933 0.309443 0.656093
248 2 0.979845 0.355356 0.780967
631 1 0.89444 0.394848 0.71853
8 2 0.0596473 0.434341 0.780967
135 2 0.10556 0.480254 0.656093
396 2 0.10556 0.559239 0.780967
651 1 0.0201545 0.519746 0.71853
75 2 0.184545 0.559239 0.656093
264 2 0.184545 0.480254 0.780967
455 2 0.230458 0.434341 0.656093
667 1 0.26995 0.519746 0.71853
24 2 0.309443 0.434341 0.780967
151 2 0.355356 0.480254 0.656093
412 2 0.355356 0.559239 0.780967
40 2 0.559239 0.434341 0.780967
91 2 0.434341 0.559239 0.656093
280 2 0.434341 0.480254 0.780967
471 2 0.480254 0.434341 0.656093
683 1 0.519746 0.519746 0.71853
107 2 0.684137 0.559239 0.656093
167 2 0.605152 0.480254 0.656093
296 2 0.684137 0.480254 0.780967
428 2 0.605152 0.559239 0.780967
56 2 0.809035 0.434341 0.780967
183 2 0.854948 0.480254 0.656093
444 2 0.854948 0.559239 0.780967
487 2 0.73005 0.434341 0.656093
699 1 0.769542 0.519746 0.71853
123 2 0.933933 0.559239 0.656093
312 2 0.933933 0.480254 0.780967
503 2 0.979845 0.434341 0.656093
12 2 0.0596473 0.684137 0.780967
331 2 0.0596473 0.605152 0.656093
204 2 0.230458 0.605152 0.780967
459 2 0.230458 0.684137 0.656093
587 1 0.145052 0.644644 0.71853
28 2 0.309443 0.684137 0.780967
347 2 0.309443 0.605152 0.656093
603 1 0.394848 0.644644 0.71853
44 2 0.559239 0.684137 0.780967
220 2 0.480254 0.605152 0.780967
363 2 0.559239 0.605152 0.656093
475 2 0.480254 0.684137 0.656093
619 1 0.644644 0.644644 0.71853
60 2 0.809035 0.684137 0.780967
236 2 0.73005 0.605152 0.780967
379 2 0.809035 0.605152 0.656093
491 2 0.73005 0.684137 0.656093
252 2 0.979845 0.605152 0.780967
507 2 0.979845 0.684137 0.656093
635 1 0.89444 0.644644 0.71853
139 2 0.10556 0.73005 0.656093
335 2 0.0596473 0.854948 0.656093
400 2 0.10556 0.809035 0.780967
655 1 0.0201545 0.769542 0.71853
79 2 0.184545 0.809035 0.656093
208 2 0.230458 0.854948 0.780967
268 2 0.184545 0.73005 0.780967
671 1 0.26995 0.769542 0.71853
155 2 0.355356 0.73005 0.656093
351 2 0.309443 0.854948 0.656093
416 2 0.355356 0.809035 0.780967
95 2 0.434341 0.809035 0.656093
224 2 0.480254 0.854948 0.780967
284 2 0.434341 0.73005 0.780967
367 2 0.559239 0.854948 0.656093
687 1 0.519746 0.769542 0.71853
111 2 0.684137 0.809035 0.656093
171 2 0.605152 0.73005 0.656093
300 2 0.684137 0.73005 0.780967
432 2 0.605152 0.809035 0.780967
187 2 0.854948 0.73005 0.656093
240 2 0.73005 0.854948 0.780967
383 2 0.809035 0.854948 0.656093
448 2 0.854948 0.809035 0.780967
703 1 0.769542 0.769542 0.71853
127 2 0.933933 0.809035 0.656093
256 2 0.979845 0.854948 0.780967
316 2 0.933933 0.73005 0.780967
16 2 0.0596473 0.933933 0.780967
143 2 0.10556 0.979845 0.656093
272 2 0.184545 0.979845 0.780967
463 2 0.230458 0.933933 0.656093
591 1 0.145052 0.89444 0.71853
32 2 0.309443 0.933933 0.780967
159 2 0.355356 0.979845 0.656093
607 1 0.394848 0.89444 0.71853
48 2 0.559239 0.933933 0.780967
288 2 0.434341 0.979845 0.780967
479 2 0.480254 0.933933 0.656093
175 2 0.605152 0.979845 0.656093
304 2 0.684137 0.979845 0.780967
623 1 0.644644 0.89444 0.71853
64 2 0.809035 0.933933 0.780967
191 2 0.854948 0.979845 0.656093
495 2 0.73005 0.933933 0.656093
320 2 0.933933 0.979845 0.780967
511 2 0.979845 0.933933 0.656093
639 1 0.89444 0.89444 0.71853
324 2 0.0596473 0.10556 0.905842
516 1 0.0201545 0.0201545 0.843405
644 1 0.0201545 0.0201545 0.968279
68 2 0.184545 0.0596473 0.905842
532 1 0.26995 0.0201545 0.843405
660 1 0.26995 0.0201545 0.968279
340 2 0.309443 0.10556 0.905842
84 2 0.434341 0.0596473 0.905842
356 2 0.559239 0.10556 0.905842
548 1 0.519746 0.0201545 0.843405
676 1 0.519746 0.0201545 0.968279
100 2 0.684137 0.0596473 0.905842
372 2 0.809035 0.10556 0.905842
564 1 0.769542 0.0201545 0.843405
692 1 0.769542 0.0201545 0.968279
116 2 0.933933 0.0596473 0.905842
132 2 0.10556 0.230458 0.905842
520 1 0.0201545 0.26995 0.843405
648 1 0.0201545 0.26995 0.968279
452 2 0.230458 0.184545 0.905842
536 1 0.26995 0.26995 0.843405
580 1 0.145052 0.145052 0.968279
664 1 0.26995 0.26995 0.968279
708 1 0.145052 0.145052 0.843405
148 2 0.355356 0.230458 0.905842
596 1 0.394848 0.145052 0.968279
724 1 0.394848 0.145052 0.843405
468 2 0.480254 0.184545 0.905842
552 1 0.519746 0.26995 0.843405
680 1 0.519746 0.26995 0.968279
164 2 0.605152 0.230458 0.905842
612 1 0.644644 0.145052 0.968279
740 1 0.644644 0.145052 0.843405
180 2 0.854948 0.230458 0.905842
484 2 0.73005 0.184545 0.905842
568 1 0.769542 0.26995 0.843405
696 1 0.769542 0.26995 0.968279
500 2 0.979845 0.184545 0.905842
628 1 0.89444 0.145052 0.968279
756 1 0.89444 0.145052 0.843405
328 2 0.0596473 0.355356 0.905842
72 2 0.184545 0.309443 0.905842
584 1 0.145052 0.394848 0.968279
712 1 0.145052 0.394848 0.843405
344 2 0.309443 0.355356 0.905842
600 1 0.394848 0.394848 0.968279
728 1 0.394848 0.394848 0.843405
88 2 0.434341 0.309443 0.905842
360 2 0.559239 0.355356 0.905842
104 2 0.684137 0.309443 0.905842
616 1 0.644644 0.394848 0.968279
744 1 0.644644 0.394848 0.843405
376 2 0.809035 0.355356 0.905842
120 2 0.933933 0.309443 0.905842
632 1 0.89444 0.394848 0.968279
760 1 0.89444 0.394848 0.843405
136 2 0.10556 0.480254 0.905842
524 1 0.0201545 0.519746 0.843405
652 1 0.0201545 0.519746 0.968279
76 2 0.184545 0.559239 0.905842
456 2 0.230458 0.434341 0.905842
540 1 0.26995 0.519746 0.843405
668 1 0.26995 0.519746 0.968279
152 2 0.355356 0.480254 0.905842
92 2 0.434341 0.559239 0.905842
472 2 0.480254 0.434341 0.905842
556 1 0.519746 0.519746 0.843405
684 1 0.519746 0.519746 0.968279
108 2 0.684137 0.559239 0.905842
168 2 0.605152 0.480254 0.905842
184 2 0.854948 0.480254 0.905842
488 2 0.73005 0.434341 0.905842
572 1 0.769542 0.519746 0.843405
700 1 0.769542 0.519746 0.968279
124 2 0.933933 0.559239 0.905842
504 2 0.979845 0.434341 0.905842
332 2 0.0596473 0.605152 0.905842
460 2 0.230458 0.684137 0.905842
588 1 0.145052 0.644644 0.968279
716 1 0.145052 0.644644 0.843405
348 2 0.309443 0.605152 0.905842
604 1 0.394848 0.644644 0.968279
732 1 0.394848 0.644644 0.843405
364 2 0.559239 0.605152 0.905842
476 2 0.480254 0.684137 0.905842
620 1 0.644644 0.644644 0.968279
748 1 0.644644 0.644644 0.843405
380 2 0.809035 0.605152 0.905842
492 2 0.73005 0.684137 0.905842
508 2 0.979845 0.684137 0.905842
636 1 0.89444 0.644644 0.968279
764 1 0.89444 0.644644 0.843405
140 2 0.10556 0.73005 0.905842
336 2 0.0596473 0.854948 0.905842
528 1 0.0201545 0.769542 0.843405
656 1 0.0201545 0.769542 0.968279
80 2 0.184545 0.809035 0.905842
544 1 0.26995 0.769542 0.843405
672 1 0.26995 0.769542 0.968279
156 2 0.355356 0.73005 0.905842
352 2 0.309443 0.854948 0.905842
96 2 0.434341 0.809035 0.905842
368 2 0.559239 0.854948 0.905842
560 1 0.519746 0.769542 0.843405
688 1 0.519746 0.769542 0.968279
112 2 0.684137 0.809035 0.905842
172 2 0.605152 0.73005 0.905842
188 2 0.854948 0.73005 0.905842
384 2 0.809035 0.854948 0.905842
576 1 0.769542 0.769542 0.843405
704 1 0.769542 0.769542 0.968279
128 2 0.933933 0.809035 0.905842
144 2 0.10556 0.979845 0.905842
464 2 0.230458 0.933933 0.905842
592 1 0.145052 0.89444 0.968279
720 1 0.145052 0.89444 0.843405
160 2 0.355356 0.979845 0.905842
608 1 0.394848 0.89444 0.968279
736 1 0.394848 0.89444 0.843405
480 2 0.480254 0.933933 0.905842
176 2 0.605152 0.979845 0.905842
624 1 0.644644 0.89444 0.968279
752 1 0.644644 0.89444 0.843405
192 2 0.854948 0.979845 0.905842
496 2 0.73005 0.933933 0.905842
512 2 0.979845 0.933933 0.905842
640 1 0.89444 0.89444 0.968279
768 1 0.89444 0.89444 0.843405
