ITEM: TIMESTEP
0
ITEM: NUMBER OF ATOMS
96
ITEM: BOX BOUNDS pp pp pp
-5.2711189999999997e+00 1.4128881000000000e+01
-5.2711189999999997e+00 1.4128881000000000e+01
-8.1525440000000007e+00 2.3347456000000001e+01
ITEM: ATOMS id type xs ys zs
33 1 0.271707 0.271707 0.258811
34 1 0.271707 0.271707 0.508335
41 1 0.271707 0.271707 0.383573
42 1 0.271707 0.271707 0.633097
49 1 0.356474 0.314091 0.321192
50 1 0.356474 0.314091 0.570716
89 1 0.314091 0.356474 0.445954
90 1 0.314091 0.356474 0.695478
9 2 0.43803 0.354869 0.491665
10 2 0.43803 0.354869 0.741189
17 2 0.43803 0.354869 0.400242
18 2 0.43803 0.354869 0.649766
37 1 0.521192 0.271707 0.258811
38 1 0.521192 0.271707 0.508335
45 1 0.521192 0.271707 0.383573
46 1 0.521192 0.271707 0.633097
65 1 0.478808 0.314091 0.321192
66 1 0.478808 0.314091 0.570716
93 1 0.563575 0.356474 0.445954
94 1 0.563575 0.356474 0.695478
13 2 0.687515 0.354869 0.491665
14 2 0.687515 0.354869 0.741189
21 2 0.687515 0.354869 0.400242
22 2 0.687515 0.354869 0.649766
53 1 0.605959 0.314091 0.321192
54 1 0.605959 0.314091 0.570716
69 1 0.728293 0.314091 0.321192
70 1 0.728293 0.314091 0.570716
1 2 0.354869 0.43803 0.27548
2 2 0.354869 0.43803 0.525004
25 2 0.354869 0.43803 0.366903
26 2 0.354869 0.43803 0.616427
35 1 0.271707 0.521192 0.258811
36 1 0.271707 0.521192 0.508335
43 1 0.271707 0.521192 0.383573
44 1 0.271707 0.521192 0.633097
51 1 0.356474 0.563575 0.321192
52 1 0.356474 0.563575 0.570716
73 1 0.314091 0.478808 0.445954
74 1 0.314091 0.478808 0.695478
39 1 0.521192 0.521192 0.258811
40 1 0.521192 0.521192 0.508335
47 1 0.521192 0.521192 0.383573
48 1 0.521192 0.521192 0.633097
57 1 0.436425 0.478808 0.445954
58 1 0.436425 0.478808 0.695478
67 1 0.478808 0.563575 0.321192
68 1 0.478808 0.563575 0.570716
77 1 0.563575 0.478808 0.445954
78 1 0.563575 0.478808 0.695478
81 1 0.478808 0.436425 0.321192
82 1 0.478808 0.436425 0.570716
5 2 0.604353 0.43803 0.27548
6 2 0.604353 0.43803 0.525004
29 2 0.604353 0.43803 0.366903
30 2 0.604353 0.43803 0.616427
55 1 0.605959 0.563575 0.321192
56 1 0.605959 0.563575 0.570716
61 1 0.685909 0.478808 0.445954
62 1 0.685909 0.478808 0.695478
71 1 0.728293 0.563575 0.321192
72 1 0.728293 0.563575 0.570716
85 1 0.728293 0.436425 0.321192
86 1 0.728293 0.436425 0.570716
3 2 0.354869 0.687515 0.27548
4 2 0.354869 0.687515 0.525004
27 2 0.354869 0.687515 0.366903
28 2 0.354869 0.687515 0.616427
75 1 0.314091 0.728293 0.445954
76 1 0.314091 0.728293 0.695478
91 1 0.314091 0.605959 0.445954
92 1 0.314091 0.605959 0.695478
11 2 0.43803 0.604353 0.491665
12 2 0.43803 0.604353 0.741189
19 2 0.43803 0.604353 0.400242
20 2 0.43803 0.604353 0.649766
59 1 0.436425 0.728293 0.445954
60 1 0.436425 0.728293 0.695478
79 1 0.563575 0.728293 0.445954
80 1 0.563575 0.728293 0.695478
83 1 0.478808 0.685909 0.321192
84 1 0.478808 0.685909 0.570716
95 1 0.563575 0.605959 0.445954
96 1 0.563575 0.605959 0.695478
7 2 0.604353 0.687515 0.27548
8 2 0.604353 0.687515 0.525004
15 2 0.687515 0.604353 0.491665
16 2 0.687515 0.604353 0.741189
23 2 0.687515 0.604353 0.400242
24 2 0.687515 0.604353 0.649766
31 2 0.604353 0.687515 0.366903
32 2 0.604353 0.687515 0.616427
63 1 0.685909 0.728293 0.445954
64 1 0.685909 0.728293 0.695478
87 1 0.728293 0.685909 0.321192
88 1 0.728293 0.685909 0.570716
ITEM: TIMESTEP
100
ITEM: NUMBER OF ATOMS
96
ITEM: BOX BOUNDS pp pp pp
-5.2711189999999997e+00 1.4128881000000000e+01
-5.2711189999999997e+00 1.4128881000000000e+01
-8.1525440000000007e+00 2.3347456000000001e+01
ITEM: ATOMS id type xs ys zs
33 1 0.29002 0.326881 0.266955
34 1 0.353989 0.294293 0.477376
41 1 0.29552 0.325722 0.413108
42 1 0.299248 0.329606 0.624052
49 1 0.306479 0.326032 0.339524
50 1 0.301213 0.339923 0.54481
89 1 0.384754 0.245087 0.412823
90 1 0.33179 0.325657 0.697485
9 2 0.485561 0.323028 0.44325
10 2 0.405484 0.41458 0.72909
17 2 0.454499 0.284299 0.351933
18 2 0.421461 0.358788 0.644554
37 1 0.499539 0.341689 0.252609
38 1 0.596974 0.286948 0.51443
45 1 0.611981 0.304069 0.36323
46 1 0.626132 0.32112 0.660075
65 1 0.473541 0.335996 0.338921
66 1 0.450451 0.379639 0.581694
93 1 0.618503 0.299228 0.442145
94 1 0.520898 0.355064 0.701617
13 2 0.693563 0.372712 0.498799
14 2 0.640873 0.436087 0.707964
21 2 0.696802 0.387758 0.399448
22 2 0.725281 0.392315 0.629795
53 1 0.548438 0.2629 0.301619
54 1 0.637161 0.331436 0.578967
69 1 0.710041 0.337948 0.326625
70 1 0.758673 0.329432 0.563247
1 2 0.389161 0.387204 0.288123
2 2 0.395742 0.406535 0.506425
25 2 0.377099 0.41296 0.384192
26 2 0.330991 0.443773 0.590825
35 1 0.306322 0.563381 0.257831
36 1 0.288463 0.608911 0.509995
43 1 0.30539 0.618684 0.367403
44 1 0.286375 0.59286 0.63767
51 1 0.330787 0.50554 0.32143
52 1 0.338581 0.57665 0.57307
73 1 0.321626 0.518924 0.439352
74 1 0.352847 0.522621 0.754658
39 1 0.493129 0.573511 0.269507
40 1 0.519137 0.516876 0.508286
47 1 0.540029 0.520225 0.383178
48 1 0.526977 0.523628 0.63795
57 1 0.481169 0.46388 0.445497
58 1 0.515673 0.472161 0.703668
67 1 0.497617 0.60495 0.327478
68 1 0.440118 0.614301 0.559857
77 1 0.601964 0.440743 0.450274
78 1 0.580067 0.525998 0.757614
81 1 0.452341 0.493763 0.325665
82 1 0.445404 0.498507 0.568625
5 2 0.601544 0.380147 0.293714
6 2 0.547202 0.405212 0.52612
29 2 0.545207 0.426013 0.376116
30 2 0.561901 0.4176 0.623299
55 1 0.574592 0.508921 0.311101
56 1 0.571496 0.530163 0.571126
61 1 0.750538 0.475587 0.452657
62 1 0.751079 0.500666 0.685288
71 1 0.684331 0.619043 0.340495
72 1 0.736545 0.557375 0.562983
85 1 0.685724 0.475788 0.33234
86 1 0.676326 0.450114 0.565761
3 2 0.382856 0.624073 0.303068
4 2 0.372056 0.70462 0.51443
27 2 0.399741 0.715781 0.383042
28 2 0.380008 0.683574 0.615628
75 1 0.340924 0.766253 0.446627
76 1 0.332087 0.660984 0.689389
91 1 0.32698 0.639902 0.441258
92 1 0.305862 0.601051 0.710055
11 2 0.408188 0.559849 0.492336
12 2 0.416215 0.63334 0.74483
19 2 0.419169 0.565251 0.395075
20 2 0.400934 0.540722 0.66649
59 1 0.460308 0.678059 0.451635
60 1 0.466811 0.701875 0.683521
79 1 0.56976 0.726962 0.452935
80 1 0.58838 0.694263 0.685745
83 1 0.487631 0.709627 0.317054
84 1 0.474953 0.737038 0.565962
95 1 0.540556 0.575878 0.447292
96 1 0.522965 0.595119 0.703347
7 2 0.595752 0.64474 0.288417
8 2 0.545889 0.651654 0.518116
15 2 0.65464 0.534948 0.50226
16 2 0.658988 0.596554 0.715008
23 2 0.663957 0.541599 0.402949
24 2 0.666058 0.543603 0.628537
31 2 0.565963 0.662174 0.383912
32 2 0.533132 0.646138 0.619702
63 1 0.633613 0.64624 0.455221
64 1 0.653484 0.670979 0.64747
87 1 0.679602 0.628237 0.344668
88 1 0.648704 0.635991 0.570343
ITEM: TIMESTEP
200
ITEM: NUMBER OF ATOMS
96
ITEM: BOX BOUNDS pp pp pp
-5.2711189999999997e+00 1.4128881000000000e+01
-5.2711189999999997e+00 1.4128881000000000e+01
-8.1525440000000007e+00 2.3347456000000001e+01
ITEM: ATOMS id type xs ys zs
33 1 0.283379 0.322039 0.283788
34 1 0.361594 0.293224 0.480451
41 1 0.295027 0.340434 0.425718
42 1 0.295841 0.330209 0.610241
49 1 0.318156 0.316602 0.356355
50 1 0.297141 0.349341 0.53739
89 1 0.377935 0.253061 0.410898
90 1 0.332532 0.310616 0.679379
9 2 0.493381 0.322686 0.44316
10 2 0.398733 0.404564 0.710438
17 2 0.458121 0.282709 0.355573
18 2 0.424607 0.347209 0.625873
37 1 0.498583 0.356332 0.256956
38 1 0.609635 0.281785 0.516997
45 1 0.611085 0.3046 0.36335
46 1 0.628218 0.322845 0.662334
65 1 0.465791 0.325726 0.351056
66 1 0.449391 0.378809 0.585178
93 1 0.62466 0.294488 0.443576
94 1 0.517972 0.354844 0.692718
13 2 0.698791 0.372293 0.49977
14 2 0.63739 0.438774 0.70938
21 2 0.696675 0.387584 0.400607
22 2 0.726129 0.395379 0.632045
53 1 0.546835 0.273494 0.301651
54 1 0.638733 0.329991 0.58357
69 1 0.713583 0.331727 0.329495
70 1 0.763503 0.334101 0.565408
1 2 0.385737 0.38348 0.297219
2 2 0.405391 0.403793 0.5096
25 2 0.384157 0.416984 0.392721
26 2 0.328369 0.451058 0.588425
35 1 0.297 0.555636 0.266353
36 1 0.289398 0.613654 0.508891
43 1 0.304519 0.623691 0.369387
44 1 0.288465 0.601191 0.633093
51 1 0.328599 0.507792 0.332784
52 1 0.346813 0.588611 0.570621
73 1 0.315035 0.527239 0.42897
74 1 0.356923 0.512925 0.743165
39 1 0.487447 0.576935 0.268192
40 1 0.518844 0.501251 0.50763
47 1 0.537827 0.521848 0.379988
48 1 0.529634 0.524385 0.638331
57 1 0.478055 0.464496 0.439188
58 1 0.511105 0.472175 0.703621
67 1 0.494927 0.606467 0.325616
68 1 0.43155 0.611642 0.565502
77 1 0.599336 0.435355 0.45077
78 1 0.575514 0.529234 0.757808
81 1 0.449869 0.494922 0.325407
82 1 0.446936 0.499478 0.571186
5 2 0.614001 0.381444 0.29033
6 2 0.552995 0.39596 0.531137
29 2 0.548751 0.426057 0.371242
30 2 0.560681 0.419481 0.626362
55 1 0.570106 0.508031 0.30599
56 1 0.571547 0.52909 0.57065
61 1 0.749632 0.476877 0.452853
62 1 0.748804 0.502611 0.68691
71 1 0.682458 0.618573 0.341428
72 1 0.734021 0.557327 0.562201
85 1 0.680736 0.477265 0.332674
86 1 0.677397 0.449529 0.566985
3 2 0.378085 0.625461 0.30339
4 2 0.383088 0.702644 0.515065
27 2 0.399438 0.720784 0.38228
28 2 0.383432 0.69376 0.617551
75 1 0.344315 0.767899 0.44865
76 1 0.331488 0.66215 0.688521
91 1 0.328622 0.646939 0.441484
92 1 0.306028 0.598579 0.705411
11 2 0.401325 0.552955 0.487636
12 2 0.415204 0.628486 0.742586
19 2 0.421177 0.570714 0.392259
20 2 0.401398 0.541574 0.661571
59 1 0.462576 0.67631 0.449229
60 1 0.469366 0.703853 0.685096
79 1 0.575059 0.718658 0.455219
80 1 0.590949 0.697651 0.685184
83 1 0.485976 0.707449 0.316098
84 1 0.4809 0.742427 0.567946
95 1 0.539176 0.5711 0.447609
96 1 0.52243 0.595568 0.702093
7 2 0.594693 0.643197 0.287774
8 2 0.537954 0.644669 0.519202
15 2 0.65188 0.532432 0.50289
16 2 0.657525 0.598283 0.715482
23 2 0.661158 0.541213 0.404832
24 2 0.666285 0.545022 0.628638
31 2 0.566163 0.662045 0.383048
32 2 0.533989 0.647892 0.620076
63 1 0.624742 0.643039 0.456079
64 1 0.655407 0.67173 0.647321
87 1 0.677015 0.62809 0.345591
88 1 0.645682 0.634007 0.569641
ITEM: TIMESTEP
300
ITEM: NUMBER OF ATOMS
96
ITEM: BOX BOUNDS pp pp pp
-5.2711189999999997e+00 1.4128881000000000e+01
-5.2711189999999997e+00 1.4128881000000000e+01
-8.1525440000000007e+00 2.3347456000000001e+01
ITEM: ATOMS id type xs ys zs
33 1 0.281671 0.321923 0.288868
34 1 0.359968 0.29605 0.483312
41 1 0.294039 0.345115 0.429089
42 1 0.301453 0.31997 0.603445
49 1 0.315802 0.317636 0.359318
50 1 0.291255 0.363764 0.534853
89 1 0.376818 0.255388 0.415069
90 1 0.338249 0.300013 0.670886
9 2 0.49371 0.323378 0.44454
10 2 0.395385 0.405597 0.693503
17 2 0.457768 0.282497 0.358107
18 2 0.433715 0.326777 0.616362
37 1 0.497109 0.359415 0.258697
38 1 0.616018 0.279424 0.517636
45 1 0.61311 0.30462 0.362359
46 1 0.629491 0.322026 0.663572
65 1 0.46436 0.324818 0.353355
66 1 0.452794 0.371495 0.58649
93 1 0.625082 0.294284 0.443252
94 1 0.517468 0.35342 0.689398
13 2 0.70042 0.372783 0.499507
14 2 0.634389 0.438984 0.709848
21 2 0.6975 0.386848 0.400558
22 2 0.725721 0.396271 0.633269
53 1 0.544708 0.274957 0.302104
54 1 0.641229 0.327981 0.585165
69 1 0.715259 0.333877 0.329094
70 1 0.764248 0.33522 0.566472
1 2 0.384492 0.382847 0.300811
2 2 0.406824 0.404598 0.512454
25 2 0.384932 0.417143 0.396078
26 2 0.336462 0.444676 0.596515
35 1 0.294302 0.550686 0.272584
36 1 0.289036 0.608678 0.508819
43 1 0.305311 0.628851 0.369466
44 1 0.287431 0.612573 0.63378
51 1 0.328662 0.510049 0.33951
52 1 0.346166 0.589148 0.571873
73 1 0.314732 0.52792 0.422947
74 1 0.357667 0.510223 0.737334
39 1 0.4862 0.575889 0.268133
40 1 0.518145 0.501199 0.507492
47 1 0.538013 0.521961 0.380039
48 1 0.528407 0.52637 0.63791
57 1 0.479329 0.464914 0.438995
58 1 0.507334 0.471472 0.701366
67 1 0.494052 0.606741 0.326959
68 1 0.429286 0.614242 0.56614
77 1 0.599889 0.434069 0.451376
78 1 0.569792 0.529223 0.756961
81 1 0.449306 0.494638 0.325759
82 1 0.44614 0.502792 0.570841
5 2 0.614155 0.381488 0.290213
6 2 0.555703 0.39207 0.53203
29 2 0.548756 0.425341 0.371596
30 2 0.559137 0.416819 0.627149
55 1 0.568969 0.507454 0.305862
56 1 0.57128 0.526024 0.57086
61 1 0.750432 0.477512 0.452841
62 1 0.746665 0.503177 0.68826
71 1 0.682361 0.618474 0.34136
72 1 0.733716 0.557928 0.562909
85 1 0.680254 0.477721 0.332927
86 1 0.678409 0.448883 0.567694
3 2 0.377558 0.62552 0.303426
4 2 0.380972 0.701683 0.513868
27 2 0.401457 0.722144 0.382089
28 2 0.38226 0.701031 0.615463
75 1 0.345947 0.768884 0.448383
76 1 0.336968 0.669145 0.689333
91 1 0.327672 0.646486 0.441532
92 1 0.305813 0.603409 0.707045
11 2 0.400227 0.551959 0.48547
12 2 0.415979 0.625898 0.745212
19 2 0.422926 0.571756 0.391023
20 2 0.401426 0.555586 0.660019
59 1 0.463631 0.676303 0.448788
60 1 0.465298 0.701811 0.684667
79 1 0.576571 0.715891 0.455602
80 1 0.588868 0.698438 0.685161
83 1 0.486548 0.707743 0.315708
84 1 0.481579 0.743185 0.566026
95 1 0.540428 0.571325 0.447114
96 1 0.521666 0.596163 0.701042
7 2 0.594103 0.641229 0.287513
8 2 0.536265 0.642963 0.519054
15 2 0.6515 0.531271 0.502971
16 2 0.655099 0.598722 0.715811
23 2 0.661012 0.540223 0.404128
24 2 0.664785 0.544772 0.629064
31 2 0.566258 0.6622 0.383051
32 2 0.53388 0.649966 0.6193
63 1 0.623536 0.642277 0.456114
64 1 0.655012 0.67187 0.647207
87 1 0.677349 0.626956 0.345244
88 1 0.645451 0.633397 0.56964
ITEM: TIMESTEP
400
ITEM: NUMBER OF ATOMS
96
ITEM: BOX BOUNDS pp pp pp
-5.2711189999999997e+00 1.4128881000000000e+01
-5.2711189999999997e+00 1.4128881000000000e+01
-8.1525440000000007e+00 2.3347456000000001e+01
ITEM: ATOMS id type xs ys zs
33 1 0.280649 0.321963 0.290087
34 1 0.359568 0.296797 0.483736
41 1 0.293539 0.346921 0.430104
42 1 0.304433 0.316876 0.600488
49 1 0.31525 0.318185 0.360419
50 1 0.291016 0.365398 0.533659
89 1 0.376119 0.256073 0.415805
90 1 0.338739 0.299237 0.668626
9 2 0.494153 0.323167 0.444701
10 2 0.395321 0.405191 0.691709
17 2 0.457056 0.282157 0.358589
18 2 0.435657 0.325391 0.615136
37 1 0.496155 0.359294 0.259217
38 1 0.619011 0.278547 0.517788
45 1 0.613455 0.304399 0.362289
46 1 0.630213 0.321868 0.664011
65 1 0.463958 0.324609 0.353798
66 1 0.453671 0.370074 0.586409
93 1 0.625703 0.294133 0.443209
94 1 0.517676 0.353206 0.688956
13 2 0.701661 0.373022 0.499387
14 2 0.633533 0.439181 0.710212
21 2 0.697749 0.386765 0.400469
22 2 0.725881 0.39663 0.633687
53 1 0.543983 0.274846 0.302515
54 1 0.642343 0.327111 0.585675
69 1 0.715276 0.334202 0.328851
70 1 0.764791 0.33575 0.566837
1 2 0.383706 0.382784 0.301517
2 2 0.40784 0.404825 0.512554
25 2 0.385199 0.417405 0.396692
26 2 0.336972 0.443361 0.59647
35 1 0.293601 0.550274 0.273274
36 1 0.288986 0.609718 0.508808
43 1 0.305447 0.629133 0.369509
44 1 0.286938 0.616047 0.634576
51 1 0.32869 0.510076 0.340063
52 1 0.344846 0.590372 0.572334
73 1 0.315066 0.527864 0.42289
74 1 0.356968 0.508995 0.736339
39 1 0.485752 0.575451 0.267998
40 1 0.517842 0.501696 0.507402
47 1 0.538038 0.521873 0.380013
48 1 0.527358 0.526468 0.637307
57 1 0.47978 0.464956 0.439008
58 1 0.506677 0.471422 0.700655
67 1 0.493823 0.60685 0.327464
68 1 0.428969 0.6152 0.566248
77 1 0.600246 0.433435 0.451606
78 1 0.566665 0.530276 0.756735
81 1 0.449146 0.494564 0.325853
82 1 0.445149 0.503878 0.57052
5 2 0.613699 0.381205 0.290125
6 2 0.556938 0.390358 0.532047
29 2 0.548786 0.424973 0.371601
30 2 0.559727 0.416049 0.627112
55 1 0.568571 0.507231 0.305807
56 1 0.571214 0.524803 0.570728
61 1 0.750743 0.477803 0.452693
62 1 0.745857 0.503684 0.688617
71 1 0.682275 0.618121 0.34126
72 1 0.733365 0.557848 0.563198
85 1 0.679872 0.477514 0.332839
86 1 0.67874 0.448558 0.567825
3 2 0.377406 0.625267 0.303451
4 2 0.381171 0.702126 0.51376
27 2 0.401962 0.722162 0.382018
28 2 0.38228 0.70247 0.615362
75 1 0.346197 0.768966 0.448261
76 1 0.339593 0.671058 0.689977
91 1 0.328048 0.646613 0.441457
92 1 0.305963 0.603929 0.707673
11 2 0.40024 0.55222 0.485512
12 2 0.417374 0.623265 0.74557
19 2 0.423222 0.571857 0.391007
20 2 0.400357 0.55662 0.659456
59 1 0.463944 0.676449 0.448788
60 1 0.463937 0.701398 0.684756
79 1 0.576966 0.715765 0.45569
80 1 0.587621 0.698303 0.685335
83 1 0.486482 0.707564 0.31561
84 1 0.481763 0.743583 0.565763
95 1 0.540592 0.571577 0.447021
96 1 0.521579 0.59622 0.699993
7 2 0.593737 0.640731 0.287527
8 2 0.536413 0.642876 0.519035
15 2 0.651533 0.53105 0.503052
16 2 0.654114 0.598787 0.71608
23 2 0.660956 0.540055 0.404133
24 2 0.663986 0.544794 0.629172
31 2 0.566678 0.662324 0.38305
32 2 0.533462 0.650291 0.619088
63 1 0.623741 0.642127 0.45614
64 1 0.654471 0.671872 0.647355
87 1 0.677359 0.626611 0.345126
88 1 0.645329 0.633531 0.569766
ITEM: TIMESTEP
500
ITEM: NUMBER OF ATOMS
96
ITEM: BOX BOUNDS pp pp pp
-5.2711189999999997e+00 1.4128881000000000e+01
-5.2711189999999997e+00 1.4128881000000000e+01
-8.1525440000000007e+00 2.3347456000000001e+01
ITEM: ATOMS id type xs ys zs
33 1 0.278129 0.322107 0.292934
34 1 0.364447 0.295345 0.484589
41 1 0.294778 0.34998 0.434586
42 1 0.306765 0.314643 0.595843
49 1 0.312978 0.320858 0.363431
50 1 0.292353 0.366386 0.529623
89 1 0.375071 0.256824 0.416462
90 1 0.338516 0.297278 0.664617
9 2 0.495594 0.322662 0.444909
10 2 0.393774 0.403493 0.68879
17 2 0.456008 0.28194 0.359177
18 2 0.437141 0.323933 0.612827
37 1 0.49386 0.358685 0.260368
38 1 0.625226 0.277915 0.51866
45 1 0.613196 0.303951 0.362572
46 1 0.62996 0.321815 0.66576
65 1 0.463154 0.324494 0.354342
66 1 0.454723 0.369106 0.586008
93 1 0.627377 0.293867 0.443523
94 1 0.51649 0.353508 0.688452
13 2 0.704354 0.374124 0.498959
14 2 0.628735 0.440423 0.711646
21 2 0.697927 0.386657 0.400184
22 2 0.724583 0.397196 0.635248
53 1 0.542833 0.274104 0.30314
54 1 0.642639 0.324907 0.587943
69 1 0.71449 0.334169 0.328473
70 1 0.765102 0.337464 0.567902
1 2 0.381524 0.382867 0.302976
2 2 0.410762 0.405636 0.512043
25 2 0.385916 0.418043 0.397967
26 2 0.336912 0.442162 0.594968
35 1 0.292558 0.549326 0.274059
36 1 0.289166 0.611265 0.508826
43 1 0.305698 0.629697 0.369631
44 1 0.286853 0.620125 0.636875
51 1 0.328364 0.510074 0.340928
52 1 0.342721 0.592819 0.573246
73 1 0.315426 0.528467 0.423104
74 1 0.35645 0.504751 0.734529
39 1 0.485095 0.574423 0.26762
40 1 0.517778 0.503337 0.507021
47 1 0.537671 0.521764 0.379987
48 1 0.526519 0.525064 0.635018
57 1 0.480685 0.465116 0.43911
58 1 0.503306 0.472619 0.699013
67 1 0.493356 0.607055 0.328189
68 1 0.42849 0.617578 0.566091
77 1 0.601088 0.432507 0.451994
78 1 0.551103 0.539474 0.755974
81 1 0.448435 0.494632 0.326005
82 1 0.44378 0.506346 0.569574
5 2 0.612318 0.380501 0.290063
6 2 0.559923 0.387886 0.532162
29 2 0.54844 0.424583 0.371574
30 2 0.560158 0.414746 0.627156
55 1 0.567749 0.506791 0.30578
56 1 0.572228 0.523233 0.570001
61 1 0.751491 0.478428 0.452095
62 1 0.742889 0.504171 0.690345
71 1 0.682133 0.6174 0.340938
72 1 0.732469 0.55788 0.564126
85 1 0.679102 0.476898 0.332651
86 1 0.679847 0.448134 0.568207
3 2 0.377083 0.624489 0.303391
4 2 0.381186 0.703499 0.513549
27 2 0.402695 0.722414 0.381611
28 2 0.381969 0.703782 0.616244
75 1 0.346771 0.769787 0.447698
76 1 0.348009 0.666822 0.692693
91 1 0.328602 0.647438 0.441396
92 1 0.312896 0.605259 0.709235
11 2 0.400673 0.553376 0.485563
12 2 0.428675 0.611047 0.746062
19 2 0.423556 0.572345 0.391025
20 2 0.399522 0.556002 0.657102
59 1 0.464202 0.677586 0.448657
60 1 0.461317 0.699426 0.685346
79 1 0.577596 0.716497 0.455431
80 1 0.585118 0.698013 0.684974
83 1 0.486353 0.706959 0.315167
84 1 0.480989 0.744486 0.565493
95 1 0.540689 0.572544 0.446662
96 1 0.525154 0.59741 0.694356
7 2 0.593082 0.639725 0.287408
8 2 0.536864 0.643492 0.518482
15 2 0.652083 0.531006 0.503083
16 2 0.651999 0.599897 0.717469
23 2 0.66064 0.539735 0.404005
24 2 0.662381 0.544921 0.629956
31 2 0.567116 0.662695 0.382931
32 2 0.532648 0.651398 0.617587
63 1 0.624676 0.642103 0.455924
64 1 0.653061 0.671665 0.647973
87 1 0.677222 0.625726 0.3448
88 1 0.645095 0.633347 0.569949
ITEM: TIMESTEP
600
ITEM: NUMBER OF ATOMS
96
ITEM: BOX BOUNDS pp pp pp
-5.2711189999999997e+00 1.4128881000000000e+01
-5.2711189999999997e+00 1.4128881000000000e+01
-8.1525440000000007e+00 2.3347456000000001e+01
ITEM: ATOMS id type xs ys zs
33 1 0.275602 0.321744 0.297222
34 1 0.374496 0.289198 0.486619
41 1 0.30017 0.353791 0.443107
42 1 0.306654 0.315173 0.590721
49 1 0.309964 0.325214 0.368274
50 1 0.293784 0.366233 0.523449
89 1 0.374844 0.258098 0.417452
90 1 0.33663 0.296812 0.660175
9 2 0.498555 0.321814 0.444688
10 2 0.39205 0.402461 0.68623
17 2 0.455069 0.281982 0.359677
18 2 0.436575 0.323929 0.610291
37 1 0.49153 0.358238 0.262005
38 1 0.633023 0.279192 0.520766
45 1 0.612104 0.30384 0.363519
46 1 0.627749 0.322017 0.667711
65 1 0.462702 0.324798 0.354775
66 1 0.453959 0.37064 0.585332
93 1 0.63009 0.293892 0.444391
94 1 0.514145 0.353504 0.688491
13 2 0.706733 0.3768 0.497563
14 2 0.626811 0.440839 0.71197
21 2 0.698225 0.387064 0.399456
22 2 0.72245 0.396272 0.635757
53 1 0.541997 0.273195 0.303926
54 1 0.638391 0.322202 0.591423
69 1 0.713176 0.333053 0.32821
70 1 0.761361 0.335895 0.567523
1 2 0.378813 0.383223 0.304955
2 2 0.413257 0.405746 0.50996
25 2 0.387678 0.419165 0.399557
26 2 0.336144 0.442516 0.592199
35 1 0.291954 0.548393 0.274685
36 1 0.289154 0.61167 0.50849
43 1 0.305657 0.630056 0.369645
44 1 0.286713 0.61985 0.637124
51 1 0.328299 0.510054 0.341761
52 1 0.342088 0.592943 0.572976
73 1 0.315723 0.528579 0.423529
74 1 0.356893 0.502992 0.733379
39 1 0.484567 0.574028 0.267289
40 1 0.518347 0.504787 0.506639
47 1 0.537441 0.521811 0.379883
48 1 0.526497 0.524466 0.634924
57 1 0.48157 0.465409 0.439158
58 1 0.50096 0.473037 0.699295
67 1 0.493098 0.607299 0.328279
68 1 0.428721 0.61819 0.565614
77 1 0.601976 0.432512 0.45195
78 1 0.551193 0.539065 0.755984
81 1 0.447925 0.49491 0.326052
82 1 0.443899 0.506868 0.568848
5 2 0.611039 0.379749 0.290061
6 2 0.562547 0.386862 0.532497
29 2 0.548332 0.425086 0.371367
30 2 0.558219 0.415255 0.627527
55 1 0.567146 0.506595 0.30547
56 1 0.572569 0.522283 0.56994
61 1 0.752351 0.479889 0.451132
62 1 0.74195 0.503203 0.69065
71 1 0.68188 0.617191 0.340587
72 1 0.732513 0.558307 0.564208
85 1 0.67845 0.476692 0.332268
86 1 0.681336 0.44835 0.568014
3 2 0.37674 0.624027 0.303331
4 2 0.380928 0.704283 0.513383
27 2 0.402876 0.722726 0.38126
28 2 0.381784 0.703343 0.616356
75 1 0.34662 0.770227 0.447213
76 1 0.348985 0.665373 0.692888
91 1 0.328893 0.648011 0.441275
92 1 0.31383 0.604623 0.709298
11 2 0.401239 0.554354 0.485584
12 2 0.429634 0.608731 0.745689
19 2 0.423682 0.572887 0.391049
20 2 0.399092 0.554984 0.656238
59 1 0.464064 0.678375 0.448512
60 1 0.461108 0.698319 0.685438
79 1 0.577274 0.717522 0.455018
80 1 0.585005 0.697337 0.684842
83 1 0.486071 0.706626 0.314734
84 1 0.480612 0.744584 0.565585
95 1 0.540818 0.573733 0.446318
96 1 0.526034 0.597097 0.694005
7 2 0.592672 0.63928 0.287088
8 2 0.537269 0.644343 0.518242
15 2 0.652436 0.531733 0.50303
16 2 0.652544 0.59974 0.717533
23 2 0.660484 0.540024 0.403731
24 2 0.662068 0.544609 0.629996
31 2 0.56733 0.663153 0.382594
32 2 0.532506 0.651022 0.61736
63 1 0.625207 0.642546 0.455618
64 1 0.652676 0.67138 0.648055
87 1 0.677173 0.625414 0.344248
88 1 0.645131 0.633201 0.569909
ITEM: TIMESTEP
700
ITEM: NUMBER OF ATOMS
96
ITEM: BOX BOUNDS pp pp pp
-5.2711189999999997e+00 1.4128881000000000e+01
-5.2711189999999997e+00 1.4128881000000000e+01
-8.1525440000000007e+00 2.3347456000000001e+01
ITEM: ATOMS id type xs ys zs
33 1 0.275422 0.321718 0.297481
34 1 0.374797 0.288975 0.486767
41 1 0.300617 0.353899 0.44334
42 1 0.306643 0.315118 0.590614
49 1 0.309935 0.325421 0.368483
50 1 0.293833 0.366178 0.523488
89 1 0.374922 0.258126 0.417556
90 1 0.336522 0.2968 0.660021
9 2 0.498775 0.321744 0.444676
10 2 0.391987 0.402395 0.686076
17 2 0.455016 0.281973 0.359722
18 2 0.436552 0.323884 0.610141
37 1 0.491364 0.358243 0.262109
38 1 0.633895 0.279369 0.521037
45 1 0.612014 0.303836 0.363599
46 1 0.627583 0.321994 0.66786
65 1 0.462699 0.324825 0.354813
66 1 0.453887 0.370772 0.58529
93 1 0.630323 0.293924 0.444487
94 1 0.514029 0.353534 0.688526
13 2 0.706897 0.377114 0.497388
14 2 0.626702 0.440866 0.711957
21 2 0.698267 0.387098 0.399373
22 2 0.72226 0.396126 0.635757
53 1 0.541933 0.273175 0.303972
54 1 0.637971 0.321945 0.59172
69 1 0.713073 0.332933 0.32818
70 1 0.760592 0.335387 0.56736
1 2 0.378665 0.383222 0.305059
2 2 0.413333 0.405714 0.509845
25 2 0.387923 0.419315 0.399604
26 2 0.336141 0.44256 0.592068
35 1 0.29193 0.548328 0.274723
36 1 0.28917 0.61166 0.50849
43 1 0.305643 0.6301 0.369645
44 1 0.286704 0.619828 0.637093
51 1 0.328304 0.510076 0.34181
52 1 0.342051 0.592968 0.572977
73 1 0.315791 0.528566 0.423566
74 1 0.356914 0.50289 0.733264
39 1 0.484533 0.574018 0.267267
40 1 0.518402 0.50485 0.506602
47 1 0.537411 0.521817 0.379868
48 1 0.52652 0.524455 0.634911
57 1 0.481619 0.465435 0.439146
58 1 0.500823 0.473088 0.699308
67 1 0.493082 0.607323 0.32829
68 1 0.428737 0.618193 0.5656
77 1 0.602035 0.432535 0.451915
78 1 0.551451 0.53889 0.755987
81 1 0.447897 0.494929 0.32605
82 1 0.443941 0.506865 0.568789
5 2 0.610958 0.379711 0.290054
6 2 0.56272 0.386812 0.532507
29 2 0.548383 0.425134 0.371356
30 2 0.558062 0.415296 0.62754
55 1 0.567105 0.506592 0.305444
56 1 0.57263 0.522216 0.569918
61 1 0.752446 0.480041 0.451032
62 1 0.741824 0.503115 0.690703
71 1 0.681875 0.61722 0.340528
72 1 0.73252 0.558335 0.564212
85 1 0.678404 0.476688 0.33223
86 1 0.681481 0.448371 0.567966
3 2 0.376719 0.62402 0.30332
4 2 0.380917 0.704304 0.513383
27 2 0.40286 0.722792 0.381245
28 2 0.381811 0.703338 0.616347
75 1 0.346603 0.770234 0.447208
76 1 0.348954 0.66535 0.692837
91 1 0.328914 0.64803 0.441277
92 1 0.313833 0.604526 0.709226
11 2 0.401296 0.554385 0.48558
12 2 0.429561 0.608701 0.745662
19 2 0.423698 0.573001 0.391035
20 2 0.399112 0.554921 0.65618
59 1 0.464052 0.678444 0.448506
60 1 0.461068 0.698337 0.685412
79 1 0.577271 0.717564 0.454996
80 1 0.584953 0.697299 0.684828
83 1 0.486049 0.706615 0.314713
84 1 0.480604 0.744604 0.565581
95 1 0.540825 0.573816 0.446286
96 1 0.525938 0.597048 0.694045
7 2 0.592639 0.639272 0.287065
8 2 0.537277 0.644392 0.518231
15 2 0.652475 0.531857 0.502997
16 2 0.652533 0.599725 0.717493
23 2 0.660482 0.540068 0.403696
24 2 0.662073 0.54456 0.629981
31 2 0.567335 0.663213 0.382575
32 2 0.532521 0.650977 0.617356
63 1 0.625225 0.6426 0.455597
64 1 0.652669 0.671368 0.648053
87 1 0.677166 0.625454 0.344254
88 1 0.645161 0.633185 0.569908
ITEM: TIMESTEP
800
ITEM: NUMBER OF ATOMS
96
ITEM: BOX BOUNDS pp pp pp
-5.2711189999999997e+00 1.4128881000000000e+01
-5.2711189999999997e+00 1.4128881000000000e+01
-8.1525440000000007e+00 2.3347456000000001e+01
ITEM: ATOMS id type xs ys zs
33 1 0.271119 0.322013 0.304341
34 1 0.383587 0.286348 0.49027
41 1 0.309532 0.356077 0.448231
42 1 0.301933 0.315023 0.589866
49 1 0.311923 0.327505 0.373623
50 1 0.296274 0.363915 0.523352
89 1 0.379536 0.25814 0.420531
90 1 0.342674 0.292925 0.656381
9 2 0.505229 0.322133 0.444592
10 2 0.40212 0.39916 0.675676
17 2 0.454944 0.282484 0.3609
18 2 0.43368 0.3159 0.598888
37 1 0.48754 0.356554 0.26449
38 1 0.649533 0.281368 0.526459
45 1 0.609834 0.304467 0.366622
46 1 0.617533 0.321679 0.673146
65 1 0.463468 0.326291 0.355655
66 1 0.445366 0.3686 0.585413
93 1 0.636782 0.297233 0.447399
94 1 0.516353 0.35722 0.706932
13 2 0.711211 0.382457 0.494244
14 2 0.622325 0.443108 0.712782
21 2 0.699977 0.389318 0.397045
22 2 0.708247 0.389989 0.634147
53 1 0.541788 0.272254 0.305599
54 1 0.614814 0.310778 0.59832
69 1 0.709114 0.329173 0.327351
70 1 0.743397 0.324967 0.564725
1 2 0.375415 0.38334 0.307749
2 2 0.416978 0.40601 0.507953
25 2 0.392787 0.422202 0.401124
26 2 0.334637 0.444192 0.588081
35 1 0.290801 0.546963 0.275899
36 1 0.289833 0.61093 0.507655
43 1 0.305041 0.63175 0.36963
44 1 0.286112 0.62108 0.635828
51 1 0.328113 0.510829 0.343166
52 1 0.342601 0.593738 0.571987
73 1 0.317457 0.528322 0.424295
74 1 0.358561 0.496662 0.726303
39 1 0.482673 0.574032 0.266532
40 1 0.519484 0.508475 0.505835
47 1 0.536874 0.522768 0.379298
48 1 0.528046 0.521645 0.636791
57 1 0.483933 0.467097 0.438827
58 1 0.494718 0.479903 0.705055
67 1 0.492039 0.60845 0.328494
68 1 0.43067 0.618148 0.565101
77 1 0.604441 0.433288 0.450563
78 1 0.55539 0.542636 0.757576
81 1 0.446866 0.495777 0.326038
82 1 0.446039 0.506423 0.5683
5 2 0.608494 0.379094 0.289594
6 2 0.568835 0.384707 0.535245
29 2 0.5497 0.426952 0.370849
30 2 0.545959 0.417084 0.629937
55 1 0.565624 0.507284 0.304494
56 1 0.573838 0.514865 0.570098
61 1 0.754654 0.48482 0.448018
62 1 0.738724 0.49703 0.689335
71 1 0.680932 0.619875 0.33944
72 1 0.733377 0.564775 0.563366
85 1 0.676956 0.477509 0.330635
86 1 0.695608 0.452783 0.564827
3 2 0.375531 0.624111 0.303195
4 2 0.381013 0.704611 0.513432
27 2 0.402514 0.724481 0.380926
28 2 0.382322 0.704036 0.615563
75 1 0.345927 0.770611 0.447132
76 1 0.349103 0.664248 0.691955
91 1 0.329815 0.648495 0.441093
92 1 0.312864 0.600818 0.707713
11 2 0.403086 0.555143 0.485567
12 2 0.428772 0.602431 0.743896
19 2 0.423991 0.575543 0.390768
20 2 0.398044 0.555715 0.653262
59 1 0.464052 0.680515 0.448429
60 1 0.459731 0.69676 0.685062
79 1 0.577219 0.719236 0.45437
80 1 0.584182 0.696042 0.684713
83 1 0.484649 0.707272 0.313892
84 1 0.48169 0.744664 0.565449
95 1 0.541456 0.577033 0.445207
96 1 0.528327 0.599091 0.693852
7 2 0.590712 0.639705 0.286076
8 2 0.538725 0.645639 0.51779
15 2 0.653225 0.532426 0.50223
16 2 0.65496 0.599715 0.716237
23 2 0.660507 0.542256 0.402301
24 2 0.661443 0.541658 0.628841
31 2 0.567244 0.665589 0.381674
32 2 0.533329 0.649353 0.616938
63 1 0.625677 0.644027 0.454633
64 1 0.65391 0.669719 0.646924
87 1 0.676394 0.626916 0.342574
88 1 0.64607 0.63215 0.569445
ITEM: TIMESTEP
900
ITEM: NUMBER OF ATOMS
96
ITEM: BOX BOUNDS pp pp pp
-5.2711189999999997e+00 1.4128881000000000e+01
-5.2711189999999997e+00 1.4128881000000000e+01
-8.1525440000000007e+00 2.3347456000000001e+01
ITEM: ATOMS id type xs ys zs
33 1 0.270165 0.321249 0.308979
34 1 0.392388 0.284387 0.500585
41 1 0.316675 0.351733 0.45218
42 1 0.289562 0.32546 0.595547
49 1 0.315868 0.324712 0.377492
50 1 0.296711 0.362074 0.525027
89 1 0.387742 0.257912 0.427487
90 1 0.350401 0.280634 0.650934
9 2 0.509014 0.32282 0.445078
10 2 0.403607 0.390092 0.671877
17 2 0.454178 0.281867 0.362885