ITEM: TIMESTEP
0
ITEM: NUMBER OF ATOMS
96
ITEM: BOX BOUNDS pp pp pp
-5.2711189999999997e+00 1.4128881000000000e+01
-5.2711189999999997e+00 1.4128881000000000e+01
-8.1525440000000007e+00 2.3347456000000001e+01
ITEM: ATOMS id type xs ys zs
33 1 0.269684 0.320645 0.310264
34 1 0.393079 0.28433 0.500728
41 1 0.317341 0.351062 0.452555
42 1 0.289851 0.325578 0.595894
49 1 0.317404 0.324041 0.377934
50 1 0.296943 0.361837 0.525263
89 1 0.388711 0.257236 0.427737
90 1 0.351601 0.279566 0.650572
1 2 0.374412 0.381463 0.30965
9 2 0.509509 0.322757 0.445187
10 2 0.402938 0.38996 0.671306
17 2 0.454576 0.281789 0.36314
18 2 0.423276 0.316684 0.587731
37 1 0.484883 0.352468 0.265527
65 1 0.464883 0.327093 0.357041
66 1 0.44429 0.368031 0.58034
94 1 0.511744 0.364764 0.715423
53 1 0.541976 0.271863 0.30801
6 2 0.569959 0.386581 0.533673
38 1 0.649163 0.282597 0.527048
45 1 0.607567 0.30498 0.369866
46 1 0.606263 0.323764 0.674635
93 1 0.640772 0.297211 0.448222
13 2 0.713466 0.38333 0.494668
21 2 0.700708 0.389935 0.397285
22 2 0.701901 0.38526 0.633462
54 1 0.606714 0.306869 0.59856
69 1 0.704421 0.327831 0.327927
70 1 0.742522 0.323819 0.565186
5 2 0.605558 0.379266 0.289378
25 2 0.394373 0.423779 0.401614
26 2 0.332113 0.447927 0.585052
35 1 0.289525 0.54625 0.276572
51 1 0.32752 0.511096 0.343855
52 1 0.342692 0.593929 0.571176
73 1 0.318031 0.532985 0.424465
74 1 0.361505 0.487085 0.722636
92 1 0.311043 0.590101 0.705994
20 2 0.396388 0.549643 0.650894
2 2 0.416181 0.411612 0.504554
39 1 0.481158 0.573577 0.266004
40 1 0.520062 0.51408 0.50539
47 1 0.536643 0.523966 0.379174
48 1 0.535999 0.516065 0.640957
57 1 0.486406 0.469309 0.439302
58 1 0.484517 0.483457 0.706742
78 1 0.557262 0.544427 0.756903
81 1 0.446082 0.495825 0.326085
82 1 0.445598 0.5078 0.567265
29 2 0.550536 0.428441 0.371314
30 2 0.542855 0.414696 0.626923
55 1 0.564369 0.508008 0.304208
56 1 0.572263 0.516514 0.570669
11 2 0.404773 0.560491 0.484982
12 2 0.427446 0.596683 0.741869
19 2 0.424621 0.57753 0.390051
95 1 0.541087 0.581403 0.444376
14 2 0.615355 0.448491 0.709335
77 1 0.606361 0.433157 0.451244
61 1 0.754956 0.485891 0.447921
62 1 0.736759 0.492084 0.689048
72 1 0.735293 0.566933 0.562039
85 1 0.675104 0.477193 0.330706
86 1 0.700167 0.453737 0.564678
15 2 0.653645 0.533359 0.502498
23 2 0.660138 0.543229 0.402396
24 2 0.66561 0.539899 0.627697
36 1 0.290998 0.614604 0.507031
43 1 0.305144 0.632547 0.369633
44 1 0.285853 0.618893 0.634932
3 2 0.374649 0.623925 0.302874
4 2 0.381837 0.708464 0.513395
28 2 0.384368 0.701059 0.616087
75 1 0.345892 0.772245 0.446522
76 1 0.349656 0.65945 0.69093
91 1 0.330244 0.652899 0.440665
67 1 0.491069 0.60918 0.329112
68 1 0.433018 0.619776 0.563296
27 2 0.402547 0.726135 0.38008
59 1 0.464226 0.684534 0.448036
60 1 0.459514 0.694535 0.685422
79 1 0.577384 0.72312 0.453283
80 1 0.583774 0.695315 0.684003
83 1 0.48377 0.707907 0.313028
84 1 0.483182 0.744284 0.566404
96 1 0.531589 0.600486 0.694133
7 2 0.589198 0.639736 0.285674
8 2 0.540814 0.649453 0.517018
31 2 0.567719 0.667449 0.380989
32 2 0.535006 0.645188 0.61662
71 1 0.680337 0.619366 0.338534
16 2 0.658475 0.601772 0.714591
63 1 0.62726 0.64551 0.453886
64 1 0.656865 0.669041 0.644532
87 1 0.675692 0.627383 0.342021
88 1 0.647892 0.631007 0.568509
ITEM: TIMESTEP
100
ITEM: NUMBER OF ATOMS
96
ITEM: BOX BOUNDS pp pp pp
-5.2711189999999997e+00 1.4128881000000000e+01
-5.2711189999999997e+00 1.4128881000000000e+01
-8.1525440000000007e+00 2.3347456000000001e+01
ITEM: ATOMS id type xs ys zs
33 1 0.272714 0.318947 0.3111
34 1 0.393509 0.284313 0.500762
41 1 0.31781 0.350458 0.452758
42 1 0.290326 0.32577 0.59628
49 1 0.317026 0.323535 0.378544
50 1 0.297008 0.362023 0.525375
89 1 0.389015 0.256994 0.427663
90 1 0.352743 0.278775 0.650266
1 2 0.375164 0.382529 0.311392
9 2 0.509582 0.32159 0.444567
10 2 0.402805 0.390066 0.671088
17 2 0.454269 0.28469 0.36372
18 2 0.42379 0.316694 0.58711
37 1 0.481881 0.351929 0.268294
65 1 0.465955 0.325573 0.357764
66 1 0.445186 0.369688 0.579758
94 1 0.511232 0.364778 0.715102
53 1 0.541706 0.271916 0.308469
6 2 0.569902 0.3874 0.533262
38 1 0.649315 0.282048 0.526625
45 1 0.607262 0.304297 0.370509
46 1 0.605636 0.323966 0.674226
93 1 0.641121 0.297385 0.448281
13 2 0.713906 0.383375 0.494721
21 2 0.700142 0.390595 0.397871
22 2 0.701601 0.385187 0.633277
54 1 0.606129 0.306637 0.598084
69 1 0.702964 0.32585 0.328314
70 1 0.742267 0.324345 0.565211
5 2 0.604974 0.37867 0.288964
25 2 0.394354 0.422265 0.40026
26 2 0.332132 0.448034 0.584941
35 1 0.289403 0.545463 0.276439
51 1 0.328276 0.511877 0.34334
52 1 0.342597 0.594224 0.571535
73 1 0.318139 0.533807 0.42489
74 1 0.361308 0.486878 0.722532
92 1 0.308887 0.587814 0.706192
20 2 0.396299 0.54924 0.650796
2 2 0.415834 0.412019 0.504079
39 1 0.483015 0.57437 0.266649
40 1 0.524457 0.511633 0.504504
47 1 0.537992 0.52329 0.378505
48 1 0.537276 0.512956 0.642082
57 1 0.488421 0.466509 0.440386
58 1 0.482792 0.483615 0.707723
78 1 0.556799 0.544477 0.756988
81 1 0.447644 0.49268 0.327156
82 1 0.445187 0.508086 0.566298
29 2 0.549911 0.428256 0.371136
30 2 0.542563 0.414677 0.626416
55 1 0.564841 0.508353 0.304169
56 1 0.571555 0.515241 0.570843
11 2 0.404071 0.561257 0.485157
12 2 0.4272 0.59684 0.741711
19 2 0.42562 0.576592 0.3915
95 1 0.538735 0.58211 0.444727
14 2 0.614712 0.449151 0.709278
77 1 0.607971 0.432896 0.452056
61 1 0.753279 0.486769 0.447215
62 1 0.736141 0.491674 0.689237
72 1 0.735889 0.56663 0.561744
85 1 0.673459 0.456567 0.330645
86 1 0.699907 0.453743 0.564424
15 2 0.654808 0.533952 0.501605
23 2 0.659501 0.548786 0.399701
24 2 0.665831 0.540392 0.627417
36 1 0.287863 0.616271 0.508307
43 1 0.305627 0.633866 0.368654
44 1 0.286392 0.619797 0.635508
3 2 0.374285 0.625256 0.300368
4 2 0.381735 0.709178 0.513962
28 2 0.3844 0.701249 0.615611
75 1 0.345486 0.768602 0.445796
76 1 0.350523 0.659834 0.691156
91 1 0.330469 0.653175 0.440894
67 1 0.485444 0.605437 0.332802
68 1 0.433122 0.62001 0.562477
27 2 0.402411 0.726924 0.379753
59 1 0.464027 0.686334 0.448533
60 1 0.459621 0.694106 0.685181
79 1 0.578649 0.723299 0.454577
80 1 0.583856 0.694032 0.683177
83 1 0.483604 0.708948 0.312932
84 1 0.483795 0.744273 0.566565
96 1 0.532025 0.600078 0.693998
7 2 0.592312 0.638815 0.29184
8 2 0.541174 0.649187 0.517426
31 2 0.556345 0.670656 0.384431
32 2 0.535035 0.644037 0.616539
71 1 0.710045 0.564554 0.308141
16 2 0.658611 0.601633 0.714902
63 1 0.625527 0.648075 0.454204
64 1 0.656274 0.669483 0.644993
87 1 0.677974 0.678686 0.351334
88 1 0.648176 0.632244 0.568516
ITEM: TIMESTEP
200
ITEM: NUMBER OF ATOMS
96
ITEM: BOX BOUNDS pp pp pp
-5.2711189999999997e+00 1.4128881000000000e+01
-5.2711189999999997e+00 1.4128881000000000e+01
-8.1525440000000007e+00 2.3347456000000001e+01
ITEM: ATOMS id type xs ys zs
33 1 0.274706 0.31159 0.311205
34 1 0.39421 0.283716 0.501136
41 1 0.317688 0.348487 0.453662
42 1 0.292429 0.32671 0.596925
49 1 0.316759 0.321757 0.379735
50 1 0.296296 0.364134 0.525612
89 1 0.391053 0.254851 0.427825
90 1 0.356846 0.276547 0.649233
1 2 0.373098 0.381266 0.312292
9 2 0.510821 0.319933 0.445584
10 2 0.402823 0.389667 0.669595
17 2 0.452457 0.288853 0.363394
18 2 0.425164 0.317113 0.585629
37 1 0.477015 0.346946 0.269391
65 1 0.46509 0.325983 0.35827
66 1 0.444987 0.370346 0.578466
94 1 0.510244 0.365013 0.714743
53 1 0.541871 0.264848 0.311126
6 2 0.569662 0.389881 0.531403
38 1 0.648815 0.283957 0.526667
45 1 0.601025 0.298819 0.378509
46 1 0.604633 0.324096 0.673444
93 1 0.643327 0.295145 0.450325
13 2 0.716051 0.385359 0.495743
21 2 0.697729 0.389901 0.400043
22 2 0.700307 0.385443 0.632757
54 1 0.604036 0.307565 0.596942
69 1 0.687975 0.317675 0.33163
70 1 0.74234 0.323863 0.565779
5 2 0.599442 0.369018 0.283977
25 2 0.392685 0.422563 0.403023
26 2 0.332965 0.448981 0.583786
35 1 0.294102 0.545349 0.275034
51 1 0.331671 0.514914 0.342756
52 1 0.342203 0.594383 0.571563
73 1 0.314003 0.534335 0.425019
74 1 0.362383 0.484309 0.72262
92 1 0.308693 0.585928 0.70612
20 2 0.395476 0.549634 0.650915
2 2 0.416061 0.412188 0.502869
39 1 0.492343 0.577438 0.273078
40 1 0.524009 0.509113 0.504724
47 1 0.543301 0.530666 0.375643
48 1 0.539217 0.508998 0.643243
57 1 0.488439 0.466715 0.439243
58 1 0.479755 0.483325 0.709251
78 1 0.556491 0.545108 0.757749
81 1 0.452179 0.493513 0.32733
82 1 0.447308 0.506467 0.566719
29 2 0.553079 0.424836 0.371023
30 2 0.542881 0.415099 0.62524
55 1 0.575406 0.495172 0.305272
56 1 0.574192 0.517981 0.570464
11 2 0.402668 0.563098 0.486033
12 2 0.42555 0.59679 0.741728
19 2 0.421437 0.575328 0.390055
95 1 0.536438 0.582347 0.443384
14 2 0.612496 0.449859 0.708418
77 1 0.607713 0.437552 0.451909
61 1 0.754647 0.490023 0.444563
62 1 0.735316 0.491198 0.689338
72 1 0.736526 0.565997 0.559938
85 1 0.689729 0.461042 0.32393
86 1 0.697075 0.455824 0.56376
15 2 0.656957 0.537033 0.49699
23 2 0.66329 0.556513 0.388846
24 2 0.667805 0.540934 0.62731
36 1 0.290319 0.617091 0.5073
43 1 0.303639 0.633486 0.368022
44 1 0.286176 0.61995 0.635563
3 2 0.378293 0.627126 0.299697
4 2 0.380165 0.711203 0.514914
28 2 0.385442 0.700872 0.615679
75 1 0.337894 0.763297 0.44613
76 1 0.350765 0.662625 0.690441
91 1 0.330053 0.653936 0.439949
67 1 0.484981 0.612014 0.33927
68 1 0.431921 0.618773 0.562349
27 2 0.39733 0.72642 0.378116
59 1 0.463642 0.691803 0.450423
60 1 0.460083 0.691795 0.684596
79 1 0.578292 0.729795 0.463966
80 1 0.583972 0.692928 0.683108
83 1 0.485053 0.710707 0.313941
84 1 0.484722 0.741832 0.567453
96 1 0.531185 0.597042 0.694206
7 2 0.602155 0.623432 0.307015
8 2 0.540959 0.646511 0.51839
31 2 0.558792 0.684092 0.38858
32 2 0.534974 0.640185 0.61667
71 1 0.694242 0.560028 0.295522
16 2 0.658586 0.601218 0.715129
63 1 0.622639 0.652436 0.454501
64 1 0.654203 0.669254 0.645691
87 1 0.669082 0.697649 0.349506
88 1 0.648803 0.632246 0.568348
ITEM: TIMESTEP
300
ITEM: NUMBER OF ATOMS
96
ITEM: BOX BOUNDS pp pp pp
-5.2711189999999997e+00 1.4128881000000000e+01
-5.2711189999999997e+00 1.4128881000000000e+01
-8.1525440000000007e+00 2.3347456000000001e+01
ITEM: ATOMS id type xs ys zs
33 1 0.280341 0.301887 0.313458
34 1 0.395851 0.283736 0.501585
41 1 0.320157 0.345733 0.454559
42 1 0.297349 0.331083 0.599893
49 1 0.313943 0.324352 0.381322
50 1 0.297106 0.362604 0.526352
89 1 0.392401 0.254501 0.428671
90 1 0.36397 0.272494 0.647052
1 2 0.371497 0.382516 0.313996
9 2 0.509881 0.321557 0.446796
10 2 0.402711 0.388986 0.666793
17 2 0.447372 0.291333 0.362857
18 2 0.428872 0.316776 0.583505
37 1 0.474193 0.326744 0.271148
65 1 0.463858 0.323559 0.356892
66 1 0.446686 0.369356 0.57673
94 1 0.508357 0.363977 0.713532
53 1 0.541568 0.261536 0.316299
6 2 0.571256 0.395426 0.529418
38 1 0.651116 0.289209 0.52973
45 1 0.596454 0.289716 0.386619
46 1 0.602372 0.325851 0.67202
93 1 0.649006 0.29576 0.454545
13 2 0.716358 0.390347 0.494369
21 2 0.697092 0.391019 0.398088
22 2 0.699182 0.385723 0.632082
54 1 0.598307 0.309231 0.596339
69 1 0.674345 0.308476 0.337042
70 1 0.744556 0.328601 0.565597
5 2 0.599171 0.358291 0.28266
25 2 0.393185 0.424233 0.402281
26 2 0.334389 0.452298 0.581934
35 1 0.307507 0.545782 0.272869
51 1 0.335699 0.508732 0.341365
52 1 0.34386 0.597251 0.570051
73 1 0.316473 0.537655 0.423172
74 1 0.362703 0.484619 0.721404
92 1 0.30616 0.584601 0.70659
20 2 0.395251 0.549151 0.651596
2 2 0.414846 0.414165 0.503112
39 1 0.486311 0.563818 0.26813
40 1 0.524889 0.513308 0.499154
47 1 0.54662 0.540733 0.37112
48 1 0.538129 0.507054 0.638868
57 1 0.490617 0.47939 0.430747
58 1 0.478207 0.482028 0.708656
78 1 0.555 0.543096 0.757922
81 1 0.452805 0.494292 0.328649
82 1 0.454773 0.506914 0.568642
29 2 0.552642 0.417471 0.369093
30 2 0.542621 0.419791 0.622496
55 1 0.568479 0.487751 0.295133
56 1 0.579082 0.522058 0.566127
11 2 0.404097 0.562962 0.482441
12 2 0.424049 0.59587 0.742979
19 2 0.426293 0.580794 0.390476
95 1 0.539783 0.590214 0.439681
14 2 0.609933 0.449824 0.707504
77 1 0.607618 0.439603 0.44786
61 1 0.756887 0.486899 0.440714
62 1 0.734442 0.488642 0.690641
72 1 0.732488 0.569411 0.555282
85 1 0.680561 0.436199 0.324573
86 1 0.692677 0.459372 0.562088
15 2 0.65611 0.540927 0.492068
23 2 0.672558 0.551076 0.386471
24 2 0.671108 0.541414 0.626961
36 1 0.289853 0.616254 0.506831
43 1 0.30655 0.628842 0.364714
44 1 0.286449 0.619962 0.635741
3 2 0.385395 0.626467 0.301215
4 2 0.378987 0.709944 0.515067
28 2 0.385349 0.700636 0.616532
75 1 0.33081 0.755285 0.44612
76 1 0.349753 0.661122 0.691528
91 1 0.327661 0.654953 0.439606
67 1 0.472666 0.620545 0.359161
68 1 0.428314 0.61801 0.562586
27 2 0.396852 0.728668 0.381654
59 1 0.461102 0.694721 0.453966
60 1 0.459587 0.689294 0.685779
79 1 0.574492 0.738379 0.46887
80 1 0.583777 0.692269 0.682691
83 1 0.489877 0.705404 0.320206
84 1 0.485863 0.737992 0.568403
96 1 0.528746 0.591911 0.693669
7 2 0.58785 0.618924 0.314894
8 2 0.539219 0.644388 0.518322
31 2 0.558305 0.702054 0.394682
32 2 0.534367 0.636704 0.617179
71 1 0.712767 0.564329 0.303969
16 2 0.657185 0.600506 0.715081
63 1 0.633238 0.655831 0.455458
64 1 0.653738 0.668912 0.645665
87 1 0.671252 0.697548 0.361113
88 1 0.647059 0.627989 0.567826
ITEM: TIMESTEP
400
ITEM: NUMBER OF ATOMS
96
ITEM: BOX BOUNDS pp pp pp
-5.2711189999999997e+00 1.4128881000000000e+01
-5.2711189999999997e+00 1.4128881000000000e+01
-8.1525440000000007e+00 2.3347456000000001e+01
ITEM: ATOMS id type xs ys zs
33 1 0.300531 0.285589 0.317362
34 1 0.401493 0.285495 0.502208
41 1 0.3214 0.352179 0.457438
42 1 0.3071 0.338947 0.609067
49 1 0.314801 0.330751 0.384487
50 1 0.301702 0.359811 0.530861
89 1 0.387575 0.256431 0.431261
90 1 0.377362 0.263591 0.644668
1 2 0.374248 0.380493 0.311037
9 2 0.508288 0.325758 0.444288
10 2 0.398193 0.388226 0.662549
17 2 0.439115 0.28837 0.364674
18 2 0.436902 0.317114 0.581767
37 1 0.471991 0.315153 0.277327
65 1 0.458783 0.320063 0.356473
66 1 0.454674 0.368107 0.575591
94 1 0.504553 0.361633 0.711359
53 1 0.539509 0.24874 0.323923
6 2 0.571624 0.399344 0.528231
38 1 0.653874 0.294255 0.529303
45 1 0.600026 0.288033 0.384396
46 1 0.59805 0.328074 0.669217
93 1 0.640502 0.300391 0.454373
13 2 0.718336 0.392876 0.492681
21 2 0.70021 0.378091 0.395791
22 2 0.696678 0.387811 0.630291
54 1 0.58164 0.312805 0.593578
69 1 0.684409 0.303383 0.332656
70 1 0.750676 0.340767 0.562736
5 2 0.591485 0.349724 0.281094
25 2 0.395875 0.430629 0.40104
26 2 0.338707 0.457707 0.579881
35 1 0.311652 0.542902 0.268004
51 1 0.325339 0.51123 0.339707
52 1 0.343765 0.599309 0.57143
73 1 0.330839 0.540858 0.414054
74 1 0.360218 0.480899 0.720728
92 1 0.308361 0.584221 0.706734
20 2 0.395828 0.550664 0.651712
2 2 0.41592 0.415887 0.501656
39 1 0.476997 0.561392 0.26008
40 1 0.525794 0.514999 0.499057
47 1 0.547444 0.516955 0.370941
48 1 0.541284 0.506795 0.636838
57 1 0.493921 0.470391 0.434727
58 1 0.476196 0.478714 0.706023
78 1 0.552521 0.539472 0.756764
81 1 0.445103 0.499895 0.32531
82 1 0.458651 0.504685 0.565331
29 2 0.552074 0.413701 0.362438
30 2 0.539922 0.432401 0.622286
55 1 0.562747 0.490838 0.298367
56 1 0.582248 0.528538 0.564127
11 2 0.402678 0.563083 0.480829
12 2 0.42389 0.590845 0.743728
19 2 0.44621 0.586928 0.387327
95 1 0.543998 0.594859 0.440098
14 2 0.607903 0.448572 0.706292
77 1 0.611382 0.437973 0.446852
61 1 0.762481 0.485769 0.440957
62 1 0.731124 0.487233 0.689597
72 1 0.729631 0.576207 0.555247
85 1 0.666635 0.451212 0.318241
86 1 0.701265 0.461754 0.560598
15 2 0.65737 0.54384 0.491996
23 2 0.662012 0.538574 0.399191
24 2 0.67078 0.542059 0.625362
36 1 0.287361 0.609963 0.505689
43 1 0.320042 0.631853 0.368568
44 1 0.285811 0.619055 0.635819
3 2 0.394095 0.619002 0.301484
4 2 0.373925 0.704776 0.519119
28 2 0.385038 0.702061 0.618551
75 1 0.324232 0.752626 0.451126
76 1 0.347649 0.657203 0.693022
91 1 0.325987 0.656051 0.44097
67 1 0.475374 0.60936 0.363406
68 1 0.431998 0.616723 0.563841
27 2 0.397192 0.735622 0.387496
59 1 0.466706 0.711242 0.458966
60 1 0.459013 0.68618 0.686298
79 1 0.573179 0.755824 0.474461
80 1 0.582036 0.690966 0.681342
83 1 0.487139 0.72379 0.322254
84 1 0.481677 0.739851 0.569213
96 1 0.527619 0.589377 0.692529
7 2 0.579193 0.617948 0.321471
8 2 0.540984 0.650324 0.517143
31 2 0.549064 0.71298 0.396077
32 2 0.532566 0.6373 0.615915
71 1 0.707204 0.565184 0.326499
16 2 0.654155 0.598889 0.71418
63 1 0.64174 0.654374 0.441392
64 1 0.651136 0.66762 0.644514
87 1 0.676802 0.654989 0.370918
88 1 0.645816 0.628962 0.565362
ITEM: TIMESTEP
500
ITEM: NUMBER OF ATOMS
96
ITEM: BOX BOUNDS pp pp pp
-5.2711189999999997e+00 1.4128881000000000e+01
-5.2711189999999997e+00 1.4128881000000000e+01
-8.1525440000000007e+00 2.3347456000000001e+01
ITEM: ATOMS id type xs ys zs
33 1 0.338298 0.255884 0.331757
34 1 0.402894 0.285379 0.504291
41 1 0.320218 0.358698 0.459458
42 1 0.310136 0.333591 0.608806
49 1 0.313121 0.342074 0.383352
50 1 0.311789 0.351926 0.534706
89 1 0.380401 0.264237 0.433531
90 1 0.392845 0.26369 0.638857
1 2 0.370331 0.381187 0.309332
9 2 0.504582 0.322859 0.44203
10 2 0.396393 0.389056 0.662312
17 2 0.43205 0.281136 0.365179
18 2 0.445239 0.323583 0.579223
37 1 0.468686 0.314032 0.274041
65 1 0.45535 0.319512 0.354089
66 1 0.462793 0.363234 0.575406
94 1 0.501003 0.359393 0.708723
53 1 0.534023 0.247412 0.320769
6 2 0.571006 0.404181 0.526412
38 1 0.64942 0.296833 0.530462
45 1 0.60541 0.28589 0.378076
46 1 0.591449 0.3301 0.663774
93 1 0.637588 0.298113 0.452246
13 2 0.72009 0.390258 0.492319
21 2 0.69861 0.376508 0.393417
22 2 0.689709 0.391214 0.626169
54 1 0.579256 0.312439 0.591554
69 1 0.685715 0.305759 0.321653
70 1 0.747558 0.333711 0.563628
5 2 0.589704 0.350704 0.283852
25 2 0.400944 0.435559 0.396933
26 2 0.341899 0.457183 0.577988
35 1 0.306931 0.55367 0.269083
51 1 0.33222 0.513047 0.336582
52 1 0.3355 0.598759 0.573565
73 1 0.332856 0.550317 0.412932
74 1 0.358772 0.478925 0.718227
92 1 0.30698 0.581551 0.707033
20 2 0.396779 0.551851 0.650088
2 2 0.420065 0.416013 0.500598
39 1 0.509725 0.573876 0.266532
40 1 0.52809 0.523697 0.499924
47 1 0.528279 0.503971 0.367648
48 1 0.543607 0.508354 0.635163
57 1 0.499958 0.467065 0.438382
58 1 0.478501 0.476611 0.70302
78 1 0.552594 0.535747 0.75566
81 1 0.448537 0.4845 0.315148
82 1 0.459151 0.50953 0.562925
29 2 0.54718 0.413638 0.364383
30 2 0.533271 0.44449 0.624668
55 1 0.568039 0.47024 0.293142
56 1 0.582438 0.531847 0.564721
11 2 0.407969 0.566617 0.478131
12 2 0.423952 0.585489 0.743639
19 2 0.450845 0.581388 0.382677
95 1 0.541679 0.59121 0.440748
14 2 0.609297 0.443568 0.707232
77 1 0.612004 0.421372 0.455271
61 1 0.753007 0.481578 0.439321
62 1 0.730581 0.487459 0.686258
72 1 0.742237 0.584115 0.561054
85 1 0.669782 0.450166 0.33055
86 1 0.712385 0.46661 0.561205
15 2 0.661146 0.545141 0.501675
23 2 0.646398 0.526965 0.398204
24 2 0.672047 0.546731 0.624693
36 1 0.284224 0.604159 0.507951
43 1 0.327938 0.6246 0.369989
44 1 0.283633 0.621328 0.638328
3 2 0.398505 0.618562 0.298945
4 2 0.370089 0.704592 0.520465
28 2 0.381948 0.701675 0.620128
75 1 0.320847 0.757408 0.455051
76 1 0.348615 0.655756 0.695246
91 1 0.321265 0.658856 0.44544
67 1 0.467327 0.628156 0.375468
68 1 0.432299 0.620501 0.564119
27 2 0.396514 0.731499 0.393392
59 1 0.464154 0.730796 0.462057
60 1 0.457045 0.68427 0.687721
79 1 0.581775 0.755895 0.46655
80 1 0.581058 0.692435 0.681946
83 1 0.47868 0.719883 0.326528
84 1 0.477999 0.742267 0.570966
96 1 0.525964 0.588189 0.692033
7 2 0.576006 0.609432 0.324055
8 2 0.539026 0.660356 0.515585
31 2 0.558085 0.717349 0.396205
32 2 0.534507 0.639095 0.615685
71 1 0.688061 0.573441 0.330295
16 2 0.653086 0.597232 0.712875
63 1 0.642936 0.645067 0.449292
64 1 0.65139 0.671571 0.645525
87 1 0.670584 0.651577 0.368037
88 1 0.65167 0.63943 0.566385
ITEM: TIMESTEP
600
ITEM: NUMBER OF ATOMS
96
ITEM: BOX BOUNDS pp pp pp
-5.2711189999999997e+00 1.4128881000000000e+01
-5.2711189999999997e+00 1.4128881000000000e+01
-8.1525440000000007e+00 2.3347456000000001e+01
ITEM: ATOMS id type xs ys zs
33 1 0.324242 0.262215 0.32928
34 1 0.411193 0.28348 0.503306
41 1 0.316544 0.372416 0.452005
42 1 0.317058 0.329465 0.602797
49 1 0.308462 0.332335 0.380653
50 1 0.312684 0.350942 0.525767
89 1 0.376889 0.269602 0.432701
90 1 0.394091 0.262657 0.639351
1 2 0.360602 0.369784 0.30909
9 2 0.507645 0.314843 0.447719
10 2 0.397538 0.386288 0.662671
17 2 0.443914 0.272486 0.367148
18 2 0.449192 0.328908 0.578345
37 1 0.466315 0.329187 0.265403
65 1 0.451627 0.319151 0.360563
66 1 0.462135 0.375044 0.573789
94 1 0.501071 0.357948 0.710671
53 1 0.526915 0.250618 0.3121
6 2 0.575211 0.40778 0.527333
38 1 0.641832 0.289892 0.523709
45 1 0.597642 0.29036 0.374116
46 1 0.592427 0.32998 0.666147
93 1 0.638324 0.29079 0.450705
13 2 0.719433 0.38503 0.495112
21 2 0.694153 0.378096 0.398979
22 2 0.681615 0.394845 0.622515
54 1 0.579097 0.321158 0.59023
69 1 0.692003 0.308353 0.33345
70 1 0.734649 0.319674 0.564658
5 2 0.593253 0.347523 0.286505
25 2 0.398403 0.430438 0.395114
26 2 0.338588 0.450215 0.579809
35 1 0.296619 0.568908 0.272828
51 1 0.3393 0.509501 0.334152
52 1 0.333787 0.598932 0.574046
73 1 0.329829 0.550599 0.412387
74 1 0.357942 0.475641 0.719446
92 1 0.306841 0.579376 0.707536
20 2 0.394193 0.55087 0.649859
2 2 0.419683 0.42123 0.497524
39 1 0.505406 0.569055 0.253823
40 1 0.529257 0.522563 0.501073
47 1 0.52344 0.504338 0.36963
48 1 0.552866 0.508143 0.63691
57 1 0.500177 0.467218 0.439974
58 1 0.481503 0.475664 0.702906
78 1 0.554198 0.533089 0.755217
81 1 0.447126 0.491335 0.307156
82 1 0.449181 0.513006 0.561291
29 2 0.546123 0.411475 0.366201
30 2 0.533218 0.449948 0.624096
55 1 0.568927 0.48943 0.297422
56 1 0.580574 0.542394 0.564271
11 2 0.411447 0.573437 0.475406
12 2 0.423937 0.583605 0.742949
19 2 0.44385 0.580914 0.382852
95 1 0.542923 0.589861 0.44051
14 2 0.61358 0.439991 0.707509
77 1 0.615587 0.435327 0.452849
61 1 0.74888 0.481915 0.439033
62 1 0.730141 0.484508 0.68517
72 1 0.750207 0.582198 0.560181
85 1 0.67424 0.444447 0.323958
86 1 0.724902 0.469461 0.560178
15 2 0.664949 0.542577 0.497316
23 2 0.645608 0.535504 0.399863
24 2 0.675775 0.552116 0.623083
36 1 0.292536 0.601025 0.506125
43 1 0.325202 0.625174 0.372081
44 1 0.280565 0.621355 0.640183
3 2 0.404814 0.611751 0.293763
4 2 0.371369 0.70639 0.518695
28 2 0.380291 0.70159 0.620027
75 1 0.325169 0.766702 0.456558
76 1 0.349486 0.656598 0.695294
91 1 0.313021 0.660459 0.444429
67 1 0.461737 0.619905 0.368352
68 1 0.433322 0.624345 0.565101
27 2 0.402536 0.727352 0.402497
59 1 0.475115 0.765847 0.4687
60 1 0.454519 0.683128 0.687806
79 1 0.592513 0.754911 0.471125
80 1 0.578429 0.68977 0.685585
83 1 0.478448 0.70605 0.332751
84 1 0.474472 0.74455 0.570287
96 1 0.527906 0.589599 0.692384
7 2 0.571102 0.609587 0.322289
8 2 0.539349 0.660168 0.514233
31 2 0.55552 0.708949 0.399088
32 2 0.534898 0.641995 0.616774
71 1 0.702571 0.565527 0.331714
16 2 0.653449 0.594749 0.713669
63 1 0.630294 0.648213 0.44734
64 1 0.652535 0.675872 0.648785
87 1 0.672437 0.65827 0.37542
88 1 0.64548 0.64871 0.569526
ITEM: TIMESTEP
700
ITEM: NUMBER OF ATOMS
96
ITEM: BOX BOUNDS pp pp pp
-5.2711189999999997e+00 1.4128881000000000e+01
-5.2711189999999997e+00 1.4128881000000000e+01
-8.1525440000000007e+00 2.3347456000000001e+01
ITEM: ATOMS id type xs ys zs
33 1 0.338717 0.248581 0.332077
34 1 0.418816 0.282761 0.506478
41 1 0.299654 0.396254 0.450818
42 1 0.315378 0.321895 0.599765
49 1 0.303259 0.32891 0.381558
50 1 0.317139 0.353499 0.520441
89 1 0.377578 0.279482 0.43913
90 1 0.395727 0.262616 0.638133
1 2 0.36869 0.374285 0.308673
9 2 0.50954 0.321699 0.445469
10 2 0.400873 0.383982 0.662629
17 2 0.439268 0.26736 0.369102
18 2 0.443899 0.329095 0.577936
37 1 0.476844 0.344114 0.267668
65 1 0.453928 0.311825 0.358088
66 1 0.458905 0.381428 0.575433
94 1 0.507521 0.360084 0.711848
53 1 0.517926 0.256647 0.30786
6 2 0.574687 0.412017 0.530039
38 1 0.629946 0.294993 0.527494
45 1 0.590266 0.28826 0.372952
46 1 0.594234 0.331628 0.665673
93 1 0.641088 0.287756 0.448544
13 2 0.716294 0.381278 0.495047
21 2 0.691387 0.3832 0.400903
22 2 0.680015 0.397203 0.620891
54 1 0.573287 0.310939 0.594085
69 1 0.692314 0.303756 0.334941
70 1 0.728427 0.319849 0.56619
5 2 0.600512 0.351012 0.289678
25 2 0.394096 0.42196 0.394316
26 2 0.336576 0.447562 0.578413
35 1 0.286095 0.574383 0.279182
51 1 0.326117 0.515376 0.337151
52 1 0.346308 0.593237 0.572275
73 1 0.324866 0.54371 0.412918
74 1 0.359907 0.475117 0.719129
92 1 0.304977 0.577138 0.70756
20 2 0.391577 0.54739 0.650296
2 2 0.418428 0.421054 0.495378
39 1 0.504826 0.54938 0.261001
40 1 0.52926 0.515118 0.498115
47 1 0.540215 0.514527 0.369794
48 1 0.567183 0.502966 0.638037
57 1 0.490554 0.462781 0.436371
58 1 0.481435 0.477929 0.701641
78 1 0.553839 0.532932 0.756086
81 1 0.445612 0.478016 0.321499
82 1 0.448384 0.511762 0.557573
29 2 0.543972 0.414964 0.368697
30 2 0.534189 0.458178 0.62318
55 1 0.563107 0.471834 0.29523
56 1 0.573216 0.547711 0.562573
11 2 0.410716 0.572842 0.473492
12 2 0.424761 0.583979 0.741963
19 2 0.444248 0.578284 0.378843
95 1 0.537129 0.575845 0.435999
14 2 0.611889 0.440088 0.708977
77 1 0.60807 0.437275 0.45803
61 1 0.756431 0.481449 0.4444
62 1 0.72877 0.486006 0.680688
72 1 0.747767 0.582572 0.550539
85 1 0.673732 0.445001 0.330495
86 1 0.732867 0.464547 0.559055
15 2 0.664614 0.542668 0.499985
23 2 0.655016 0.539025 0.398122
24 2 0.681265 0.556212 0.617617
36 1 0.295094 0.597052 0.507701
43 1 0.331398 0.631441 0.363563
44 1 0.283624 0.617656 0.636805
3 2 0.405561 0.60567 0.293571
4 2 0.380695 0.708868 0.515066
28 2 0.380231 0.701178 0.618129
75 1 0.3233 0.786851 0.464886
76 1 0.348023 0.655574 0.693666
91 1 0.308577 0.652892 0.444156
67 1 0.466454 0.624922 0.367771
68 1 0.430458 0.621964 0.564478
27 2 0.399665 0.731274 0.408869
59 1 0.479774 0.766691 0.473459
60 1 0.453305 0.682852 0.68769
79 1 0.596514 0.750946 0.472423
80 1 0.576427 0.683764 0.688506
83 1 0.473133 0.709549 0.331862
84 1 0.479372 0.748728 0.566376
96 1 0.530926 0.589692 0.692429
7 2 0.576779 0.613945 0.320374
8 2 0.53855 0.659162 0.514273
31 2 0.548955 0.705488 0.405858
32 2 0.530115 0.641039 0.617903
71 1 0.694583 0.563865 0.322628
16 2 0.65589 0.590228 0.712531
63 1 0.64465 0.650105 0.448921
64 1 0.648812 0.674054 0.647598
87 1 0.661905 0.664877 0.372014
88 1 0.643167 0.646725 0.567001
ITEM: TIMESTEP
800
ITEM: NUMBER OF ATOMS
96
ITEM: BOX BOUNDS pp pp pp
-5.2711189999999997e+00 1.4128881000000000e+01
-5.2711189999999997e+00 1.4128881000000000e+01
-8.1525440000000007e+00 2.3347456000000001e+01
ITEM: ATOMS id type xs ys zs
33 1 0.337671 0.257213 0.325134
34 1 0.414313 0.281571 0.503106
41 1 0.29982 0.40476 0.451017
42 1 0.312509 0.329138 0.602632
49 1 0.303428 0.334429 0.379405
50 1 0.313678 0.344758 0.523908
89 1 0.366943 0.294434 0.436769
90 1 0.390428 0.261844 0.637235
1 2 0.369405 0.371949 0.307968
9 2 0.507637 0.32597 0.445424
10 2 0.402352 0.385564 0.661459
17 2 0.441955 0.266457 0.373546
18 2 0.442083 0.328246 0.5788
37 1 0.488701 0.369871 0.272417
65 1 0.45584 0.322272 0.362289
66 1 0.462357 0.374766 0.578597
94 1 0.501147 0.359816 0.711441
53 1 0.525418 0.258363 0.315889
6 2 0.567123 0.41002 0.532891
38 1 0.635941 0.290142 0.528408
45 1 0.596228 0.294492 0.375979
46 1 0.591504 0.330893 0.665885
93 1 0.632983 0.293179 0.453788
13 2 0.709367 0.387126 0.496692
21 2 0.692953 0.379861 0.398802
22 2 0.673665 0.400291 0.61985
54 1 0.572274 0.314515 0.591937
69 1 0.705133 0.300816 0.339026
70 1 0.73051 0.326047 0.56448
5 2 0.611978 0.341881 0.29368
25 2 0.389784 0.426439 0.397773
26 2 0.337072 0.450102 0.57613
35 1 0.285456 0.585113 0.29223
51 1 0.331456 0.499729 0.340355
52 1 0.357177 0.594154 0.572043
73 1 0.324996 0.524551 0.414891
74 1 0.360964 0.475822 0.71817
92 1 0.305748 0.577084 0.703775
20 2 0.392132 0.543638 0.648232
2 2 0.4156 0.413885 0.497295
39 1 0.505986 0.558723 0.264769
40 1 0.536925 0.503201 0.496411
47 1 0.536805 0.5079 0.371119
48 1 0.567081 0.506793 0.641235
57 1 0.483739 0.471365 0.434831
58 1 0.480551 0.478689 0.703959
78 1 0.557325 0.537243 0.753952
81 1 0.44486 0.485143 0.316217
82 1 0.452119 0.504044 0.555429
29 2 0.545219 0.419143 0.369107
30 2 0.532511 0.460638 0.626726
55 1 0.564708 0.468826 0.297526
56 1 0.568502 0.545919 0.561598
11 2 0.405638 0.565911 0.472046
12 2 0.422793 0.58638 0.740283
19 2 0.439955 0.582929 0.385219
95 1 0.553587 0.577198 0.439765
14 2 0.613872 0.438169 0.711485
77 1 0.605171 0.444166 0.448791
61 1 0.752263 0.475821 0.44075
62 1 0.729191 0.481712 0.679174
72 1 0.758707 0.584004 0.553049
85 1 0.674768 0.45501 0.32754
86 1 0.744599 0.468548 0.558606
15 2 0.663263 0.541704 0.500662
23 2 0.662918 0.541174 0.394749
24 2 0.683412 0.552611 0.613344
36 1 0.298137 0.611239 0.509656
43 1 0.320902 0.632231 0.361624
44 1 0.285757 0.613487 0.632231
3 2 0.401328 0.610189 0.294973
4 2 0.380026 0.706846 0.509739
28 2 0.384154 0.698996 0.614898
75 1 0.329733 0.802912 0.468629
76 1 0.346684 0.651969 0.689309
91 1 0.299127 0.642093 0.438326
67 1 0.459134 0.625209 0.372058
68 1 0.429076 0.616387 0.558896
27 2 0.392723 0.722363 0.415413
59 1 0.490558 0.772158 0.473665
60 1 0.452827 0.681988 0.684762
79 1 0.605982 0.758054 0.473133
80 1 0.576045 0.680469 0.68437
83 1 0.471704 0.698653 0.342615
84 1 0.479078 0.742534 0.563907
96 1 0.528976 0.591716 0.691765
7 2 0.571695 0.612225 0.324819
8 2 0.541185 0.654427 0.507898
31 2 0.550519 0.700794 0.408813
32 2 0.528277 0.637622 0.615165
71 1 0.693604 0.574187 0.319034
16 2 0.658376 0.58854 0.704381
63 1 0.655735 0.647738 0.44572
64 1 0.649995 0.673166 0.641881
87 1 0.666584 0.67609 0.370094
88 1 0.639468 0.648148 0.564997
ITEM: TIMESTEP
900
ITEM: NUMBER OF ATOMS
96
ITEM: BOX BOUNDS pp pp pp
-5.2711189999999997e+00 1.4128881000000000e+01
-5.2711189999999997e+00 1.4128881000000000e+01
-8.1525440000000007e+00 2.3347456000000001e+01
ITEM: ATOMS id type xs ys zs
33 1 0.339695 0.262804 0.333
34 1 0.406214 0.277446 0.506875
41 1 0.30155 0.390451 0.448188
42 1 0.304936 0.333698 0.606686
49 1 0.301464 0.347677 0.379184
50 1 0.302836 0.351501 0.525893
89 1 0.365883 0.288724 0.436683
90 1 0.382516 0.260565 0.640818
1 2 0.370537 0.381942 0.309612