ITEM: TIMESTEP
0
ITEM: NUMBER OF ATOMS
216
ITEM: BOX BOUNDS pp pp pp
0.0000000000000000e+00 1.5500000000000000e+01
0.0000000000000000e+00 1.5500000000000000e+01
0.0000000000000000e+00 1.2500000000000000e+01
ITEM: ATOMS id type xs ys zs
1 2 0 0.192611 0.08305
8 2 0.166806 0.0963057 0.24915
55 1 0.166806 0.192419 0.08305
70 1 0.0832365 0.240668 0.24915
201 1 0.0835701 0.0482492 0.08305
205 1 0 0.0964984 0.24915
37 2 0.333613 0.192611 0.08305
69 1 0.250043 0.0482492 0.08305
98 1 0.416849 0.240668 0.24915
117 1 0.250376 0.240668 0.24915
125 1 0.333613 0.0964984 0.24915
165 1 0.417183 0.0482492 0.08305
27 2 0.500419 0.0963057 0.24915
39 2 0.667226 0.192611 0.08305
99 1 0.583989 0.240668 0.24915
115 1 0.667226 0.0964984 0.24915
145 1 0.500419 0.192419 0.08305
177 1 0.583656 0.0482492 0.08305
9 2 0.834032 0.0963057 0.24915
57 1 0.750796 0.0482492 0.08305
63 1 0.916764 0.240668 0.24915
67 1 0.834032 0.192419 0.08305
124 1 0.750462 0.240668 0.24915
203 1 0.917269 0.0482492 0.08305
21 2 0.166806 0.481529 0.08305
45 2 0 0.385223 0.24915
91 1 0 0.481336 0.08305
123 1 0.0832364 0.337166 0.08305
169 1 0.166806 0.385416 0.24915
26 2 0.333613 0.385223 0.24915
149 1 0.416849 0.337166 0.08305
163 1 0.333613 0.481336 0.08305
173 1 0.250376 0.337166 0.08305
25 2 0.667226 0.385223 0.24915
41 2 0.500419 0.481529 0.08305
97 1 0.500419 0.385416 0.24915
147 1 0.583989 0.337166 0.08305
175 1 0.667226 0.481336 0.08305
19 2 0.833194 0.481529 0.08305
111 1 0.916764 0.337166 0.08305
167 1 0.750462 0.337166 0.08305
179 1 0.833194 0.385416 0.24915
43 2 0.166806 0.67414 0.24915
93 1 0.0835701 0.626084 0.08305
151 1 0 0.674333 0.24915
153 1 0.08357 0.529585 0.24915
61 1 0.333613 0.674333 0.24915
65 1 0.417183 0.626084 0.08305
113 1 0.250043 0.626084 0.08305
126 1 0.417183 0.529585 0.24915
178 1 0.250043 0.529585 0.24915
7 2 0.500419 0.67414 0.24915
59 1 0.583656 0.626084 0.08305
71 1 0.666387 0.674333 0.24915
116 1 0.583656 0.529585 0.24915
119 1 0.749957 0.626084 0.08305
171 1 0.749957 0.529585 0.24915
44 2 0.833194 0.67414 0.24915
95 1 0.91643 0.626084 0.08305
152 1 0.91643 0.529585 0.24915
23 2 0 0.770446 0.08305
121 1 0.166806 0.770253 0.08305
170 1 0.0832364 0.818503 0.24915
3 2 0.333613 0.770446 0.08305
72 1 0.250376 0.818503 0.24915
206 1 0.416849 0.818503 0.24915
5 2 0.666387 0.770446 0.08305
62 1 0.749624 0.818503 0.24915
199 1 0.500419 0.770253 0.08305
207 1 0.583151 0.818503 0.24915
109 1 0.833194 0.770253 0.08305
180 1 0.916764 0.818503 0.24915
10 2 0 0.192611 0.41525
13 2 0.166806 0.0963057 0.58135
73 1 0.166806 0.192419 0.41525
82 1 0.0832365 0.240668 0.58135
209 1 0 0.0964984 0.58135
210 1 0.0835701 0.0482492 0.41525
46 2 0.333613 0.192611 0.41525
87 1 0.250043 0.0482492 0.41525
103 1 0.416849 0.240668 0.58135
132 1 0.250376 0.240668 0.58135
138 1 0.333613 0.0964984 0.58135
183 1 0.417183 0.0482492 0.41525
33 2 0.500419 0.0963057 0.58135
48 2 0.667226 0.192611 0.41525
105 1 0.583989 0.240668 0.58135
128 1 0.667226 0.0964984 0.58135
154 1 0.500419 0.192419 0.41525
195 1 0.583656 0.0482492 0.41525
15 2 0.834032 0.0963057 0.58135
75 1 0.750796 0.0482492 0.41525
78 1 0.916764 0.240668 0.58135
85 1 0.834032 0.192419 0.41525
136 1 0.750462 0.240668 0.58135
212 1 0.917269 0.0482492 0.41525
30 2 0.166806 0.481529 0.41525
51 2 0 0.385223 0.58135
100 1 0 0.481336 0.41525
141 1 0.0832364 0.337166 0.41525
182 1 0.166806 0.385416 0.58135
31 2 0.333613 0.385223 0.58135
158 1 0.416849 0.337166 0.41525
181 1 0.333613 0.481336 0.41525
191 1 0.250376 0.337166 0.41525
29 2 0.667226 0.385223 0.58135
50 2 0.500419 0.481529 0.41525
101 1 0.500419 0.385416 0.58135
156 1 0.583989 0.337166 0.41525
193 1 0.667226 0.481336 0.41525
28 2 0.833194 0.481529 0.41525
129 1 0.916764 0.337166 0.41525
185 1 0.750462 0.337166 0.41525
192 1 0.833194 0.385416 0.58135
47 2 0.166806 0.67414 0.58135
102 1 0.0835701 0.626084 0.41525
155 1 0 0.674333 0.58135
159 1 0.08357 0.529585 0.58135
74 1 0.333613 0.674333 0.58135
83 1 0.417183 0.626084 0.41525
131 1 0.250043 0.626084 0.41525
140 1 0.417183 0.529585 0.58135
190 1 0.250043 0.529585 0.58135
11 2 0.500419 0.67414 0.58135
77 1 0.583656 0.626084 0.41525
84 1 0.666387 0.674333 0.58135
130 1 0.583656 0.529585 0.58135
137 1 0.749957 0.626084 0.41525
186 1 0.749957 0.529585 0.58135
49 2 0.833194 0.67414 0.58135
104 1 0.91643 0.626084 0.41525
157 1 0.91643 0.529585 0.58135
32 2 0 0.770446 0.41525
139 1 0.166806 0.770253 0.41525
184 1 0.0832364 0.818503 0.58135
12 2 0.333613 0.770446 0.41525
86 1 0.250376 0.818503 0.58135
211 1 0.416849 0.818503 0.58135
14 2 0.666387 0.770446 0.41525
76 1 0.749624 0.818503 0.58135
208 1 0.500419 0.770253 0.41525
213 1 0.583151 0.818503 0.58135
127 1 0.833194 0.770253 0.41525
194 1 0.916764 0.818503 0.58135
4 2 0.166806 0.0963057 0.91355
16 2 0 0.192611 0.74745
64 1 0.0832365 0.240668 0.91355
79 1 0.166806 0.192419 0.74745
200 1 0 0.0964984 0.91355
215 1 0.0835701 0.0482492 0.74745
52 2 0.333613 0.192611 0.74745
90 1 0.250043 0.0482492 0.74745
94 1 0.416849 0.240668 0.91355
114 1 0.250376 0.240668 0.91355
120 1 0.333613 0.0964984 0.91355
188 1 0.417183 0.0482492 0.74745
24 2 0.500419 0.0963057 0.91355
53 2 0.667226 0.192611 0.74745
96 1 0.583989 0.240668 0.91355
110 1 0.667226 0.0964984 0.91355
160 1 0.500419 0.192419 0.74745
198 1 0.583656 0.0482492 0.74745
6 2 0.834032 0.0963057 0.91355
60 1 0.916764 0.240668 0.91355
80 1 0.750796 0.0482492 0.74745
89 1 0.834032 0.192419 0.74745
118 1 0.750462 0.240668 0.91355
216 1 0.917269 0.0482492 0.74745
35 2 0.166806 0.481529 0.74745
42 2 0 0.385223 0.91355
106 1 0 0.481336 0.74745
144 1 0.0832364 0.337166 0.74745
164 1 0.166806 0.385416 0.91355
22 2 0.333613 0.385223 0.91355
162 1 0.416849 0.337166 0.74745
187 1 0.333613 0.481336 0.74745
196 1 0.250376 0.337166 0.74745
20 2 0.667226 0.385223 0.91355
54 2 0.500419 0.481529 0.74745
92 1 0.500419 0.385416 0.91355
161 1 0.583989 0.337166 0.74745
197 1 0.667226 0.481336 0.74745
34 2 0.833194 0.481529 0.74745
134 1 0.916764 0.337166 0.74745
174 1 0.833194 0.385416 0.91355
189 1 0.750462 0.337166 0.74745
38 2 0.166806 0.67414 0.91355
107 1 0.0835701 0.626084 0.74745
146 1 0 0.674333 0.91355
150 1 0.08357 0.529585 0.91355
56 1 0.333613 0.674333 0.91355
88 1 0.417183 0.626084 0.74745
122 1 0.417183 0.529585 0.91355
135 1 0.250043 0.626084 0.74745
172 1 0.250043 0.529585 0.91355
2 2 0.500419 0.67414 0.91355
66 1 0.666387 0.674333 0.91355
81 1 0.583656 0.626084 0.74745
112 1 0.583656 0.529585 0.91355
142 1 0.749957 0.626084 0.74745
168 1 0.749957 0.529585 0.91355
40 2 0.833194 0.67414 0.91355
108 1 0.91643 0.626084 0.74745
148 1 0.91643 0.529585 0.91355
36 2 0 0.770446 0.74745
143 1 0.166806 0.770253 0.74745
166 1 0.0832364 0.818503 0.91355
17 2 0.333613 0.770446 0.74745
68 1 0.250376 0.818503 0.91355
202 1 0.416849 0.818503 0.91355
18 2 0.666387 0.770446 0.74745
58 1 0.749624 0.818503 0.91355
204 1 0.583151 0.818503 0.91355
214 1 0.500419 0.770253 0.74745
133 1 0.833194 0.770253 0.74745
176 1 0.916764 0.818503 0.91355
ITEM: TIMESTEP
79
ITEM: NUMBER OF ATOMS
216
ITEM: BOX BOUNDS pp pp pp
0.0000000000000000e+00 1.5500000000000000e+01
0.0000000000000000e+00 1.5500000000000000e+01
0.0000000000000000e+00 1.2500000000000000e+01
ITEM: ATOMS id type xs ys zs
1 2 1.01732 0.127914 0.0816333
8 2 0.174976 0.0719277 0.2483
55 1 0.171764 0.19778 0.0816333
70 1 0.089958 0.231147 0.2483
201 1 0.0948684 0.971418 0.0816333
205 1 0.0171619 -0.000923653 0.2483
37 2 0.322852 0.141696 0.0816333
69 1 0.26002 0.975233 0.0816333
98 1 0.418653 0.209237 0.2483
117 1 0.257388 0.234522 0.2483
125 1 0.349029 0.0347206 0.2483
165 1 0.434442 1.01234 0.0816333
27 2 0.532198 0.0642634 0.2483
39 2 0.668381 0.142423 0.0816333
99 1 0.593924 0.225713 0.2483
115 1 0.697495 0.0171743 0.2483
145 1 0.498772 0.169764 0.0816333
177 1 0.609429 0.975289 0.0816333
9 2 0.867865 0.071465 0.2483
57 1 0.777769 1.01296 0.0816333
63 1 0.933395 0.228594 0.2483
67 1 0.844539 0.177485 0.0816333
124 1 0.759805 0.216887 0.2483
203 1 0.927651 0.970536 0.0816333
21 2 0.147116 0.479661 0.0816333
45 2 0.0143605 0.399429 0.2483
91 1 0.983871 0.510259 0.0816333
123 1 0.0880904 0.319365 0.0816333
169 1 0.181027 0.370781 0.2483
26 2 0.353303 0.38709 0.2483
149 1 0.42477 0.302522 0.0816333
163 1 0.319392 0.49597 0.0816333
173 1 0.259974 0.332373 0.0816333
25 2 0.684445 0.392068 0.2483
41 2 0.486059 0.467323 0.0816333
97 1 0.516548 0.356492 0.2483
147 1 0.595269 0.318821 0.0816333
175 1 0.652163 0.50627 0.0816333
19 2 0.815974 0.474684 0.0816333
111 1 0.926324 0.328668 0.0816333
167 1 0.760088 0.307361 0.0816333
179 1 0.848256 0.360482 0.2483
43 2 0.177568 0.725056 0.2483
93 1 0.0817662 0.657515 0.0816333
151 1 1.00165 0.696988 0.2483
153 1 0.0756494 0.56423 0.2483
61 1 0.328656 0.668971 0.2483
65 1 0.410461 0.635605 0.0816333
113 1 0.243031 0.63223 0.0816333
126 1 0.412329 0.547387 0.2483
178 1 0.240445 0.534378 0.2483
7 2 0.483102 0.738838 0.2483
59 1 0.567024 0.638158 0.0816333
71 1 0.65588 0.689267 0.2483
116 1 0.574096 0.538083 0.2483
119 1 0.740614 0.649865 0.0816333
171 1 0.740331 0.559391 0.2483
44 2 0.832038 0.724329 0.2483
95 1 0.906495 0.641039 0.0816333
152 1 0.905151 0.547931 0.2483
23 2 0.968222 0.802488 0.0816333
121 1 0.15139 0.832031 0.0816333
170 1 0.0659778 0.854407 0.2483
3 2 0.325444 0.794824 0.0816333
72 1 0.240399 0.891519 0.2483
206 1 0.405551 0.895334 0.2483
5 2 0.632554 0.795287 0.0816333
62 1 0.722651 0.853792 0.2483
199 1 0.483257 0.867675 0.0816333
207 1 0.572769 0.896216 0.2483
109 1 0.802924 0.849577 0.0816333
180 1 0.890991 0.891463 0.2483
10 2 1.01732 0.127914 0.414967
13 2 0.174976 0.0719277 0.581633
73 1 0.171764 0.19778 0.414967
82 1 0.089958 0.231147 0.581633
209 1 0.0171619 -0.000923653 0.581633
210 1 0.0948684 0.971418 0.414967
46 2 0.322852 0.141696 0.414967
87 1 0.26002 0.975233 0.414967
103 1 0.418653 0.209237 0.581633
132 1 0.257388 0.234522 0.581633
138 1 0.349029 0.0347206 0.581633
183 1 0.434442 1.01234 0.414967
33 2 0.532198 0.0642635 0.581633
48 2 0.668381 0.142423 0.414967
105 1 0.593924 0.225713 0.581633
128 1 0.697495 0.0171743 0.581633
154 1 0.498772 0.169764 0.414967
195 1 0.609429 0.975289 0.414967
15 2 0.867865 0.071465 0.581633
75 1 0.777769 1.01296 0.414967
78 1 0.933395 0.228594 0.581633
85 1 0.844539 0.177485 0.414967
136 1 0.759805 0.216887 0.581633
212 1 0.927651 0.970536 0.414967
30 2 0.147116 0.479661 0.414967
51 2 0.0143605 0.399429 0.581633
100 1 0.983871 0.510259 0.414967
141 1 0.0880904 0.319365 0.414967
182 1 0.181027 0.370781 0.581633
31 2 0.353303 0.38709 0.581633
158 1 0.42477 0.302522 0.414967
181 1 0.319392 0.49597 0.414967
191 1 0.259974 0.332373 0.414967
29 2 0.684445 0.392068 0.581633
50 2 0.486059 0.467323 0.414967
101 1 0.516548 0.356492 0.581633
156 1 0.595269 0.318821 0.414967
193 1 0.652163 0.50627 0.414967
28 2 0.815974 0.474684 0.414967
129 1 0.926324 0.328668 0.414967
185 1 0.760088 0.307361 0.414967
192 1 0.848256 0.360482 0.581633
47 2 0.177568 0.725056 0.581633
102 1 0.0817662 0.657515 0.414967
155 1 1.00165 0.696988 0.581633
159 1 0.0756494 0.56423 0.581633
74 1 0.328656 0.668971 0.581633
83 1 0.410461 0.635605 0.414967
131 1 0.243031 0.63223 0.414967
140 1 0.412329 0.547387 0.581633
190 1 0.240445 0.534378 0.581633
11 2 0.483102 0.738838 0.581633
77 1 0.567024 0.638158 0.414967
84 1 0.65588 0.689267 0.581633
130 1 0.574096 0.538083 0.581633
137 1 0.740614 0.649865 0.414967
186 1 0.740331 0.559391 0.581633
49 2 0.832038 0.724329 0.581633
104 1 0.906495 0.641039 0.414967
157 1 0.905151 0.547931 0.581633
32 2 0.968222 0.802488 0.414967
139 1 0.15139 0.832031 0.414967
184 1 0.0659778 0.854407 0.581633
12 2 0.325444 0.794824 0.414967
86 1 0.240399 0.891519 0.581633
211 1 0.405551 0.895334 0.581633
14 2 0.632554 0.795287 0.414967
76 1 0.722651 0.853792 0.581633
208 1 0.483257 0.867675 0.414967
213 1 0.572769 0.896216 0.581633
127 1 0.802924 0.849577 0.414967
194 1 0.890991 0.891463 0.581633
4 2 0.174976 0.0719277 0.914967
16 2 1.01732 0.127914 0.7483
64 1 0.089958 0.231147 0.914967
79 1 0.171764 0.19778 0.7483
200 1 0.0171619 -0.000923653 0.914967
215 1 0.0948684 0.971418 0.7483
52 2 0.322852 0.141696 0.7483
90 1 0.26002 0.975233 0.7483
94 1 0.418653 0.209237 0.914967
114 1 0.257388 0.234522 0.914967
120 1 0.349029 0.0347206 0.914967
188 1 0.434442 1.01234 0.7483
24 2 0.532198 0.0642634 0.914967
53 2 0.668381 0.142423 0.7483
96 1 0.593924 0.225713 0.914967
110 1 0.697495 0.0171743 0.914967
160 1 0.498772 0.169764 0.7483
198 1 0.609429 0.975289 0.7483
6 2 0.867865 0.071465 0.914967
60 1 0.933395 0.228594 0.914967
80 1 0.777769 1.01296 0.7483
89 1 0.844539 0.177485 0.7483
118 1 0.759805 0.216887 0.914967
216 1 0.927651 0.970536 0.7483
35 2 0.147116 0.479661 0.7483
42 2 0.0143605 0.399429 0.914967
106 1 0.983871 0.510259 0.7483
144 1 0.0880904 0.319365 0.7483
164 1 0.181027 0.370781 0.914967
22 2 0.353303 0.38709 0.914967
162 1 0.42477 0.302522 0.7483
187 1 0.319392 0.49597 0.7483
196 1 0.259974 0.332373 0.7483
20 2 0.684445 0.392068 0.914967
54 2 0.486059 0.467323 0.7483
92 1 0.516548 0.356492 0.914967
161 1 0.595269 0.318821 0.7483
197 1 0.652163 0.50627 0.7483
34 2 0.815974 0.474684 0.7483
134 1 0.926324 0.328668 0.7483
174 1 0.848256 0.360482 0.914967
189 1 0.760088 0.307361 0.7483
38 2 0.177568 0.725056 0.914967
107 1 0.0817662 0.657515 0.7483
146 1 1.00165 0.696988 0.914967
150 1 0.0756494 0.56423 0.914967
56 1 0.328656 0.668971 0.914967
88 1 0.410461 0.635605 0.7483
122 1 0.412329 0.547387 0.914967
135 1 0.243031 0.63223 0.7483
172 1 0.240445 0.534378 0.914967
2 2 0.483102 0.738838 0.914967
66 1 0.65588 0.689267 0.914967
81 1 0.567024 0.638158 0.7483
112 1 0.574096 0.538083 0.914967
142 1 0.740614 0.649865 0.7483
168 1 0.740331 0.559391 0.914967
40 2 0.832038 0.724329 0.914967
108 1 0.906495 0.641039 0.7483
148 1 0.905151 0.547931 0.914967
36 2 0.968222 0.802488 0.7483
143 1 0.15139 0.832031 0.7483
166 1 0.0659778 0.854407 0.914967
17 2 0.325444 0.794824 0.7483
68 1 0.240399 0.891519 0.914967
202 1 0.405551 0.895334 0.914967
18 2 0.632554 0.795287 0.7483
58 1 0.722651 0.853792 0.914967
204 1 0.572769 0.896216 0.914967
214 1 0.483257 0.867675 0.7483
133 1 0.802924 0.849577 0.7483
176 1 0.890991 0.891463 0.914967
