LAMMPS data file. CGCMM style. atom_style full generated by VMD/TopoTools v1.7 on Tue Sep 02 09:20:24 +0330 2025
 216 atoms
 0 bonds
 0 angles
 0 dihedrals
 0 impropers
 2 atom types
 0 bond types
 0 angle types
 0 dihedral types
 0 improper types
 0.00000 15.500000  xlo xhi
 0.00000 15.500000  ylo yhi
 0.00000 12.500000  zlo zhi

# Pair Coeffs
#
# 1  Co
# 2  Ta

 Masses

 1 58.933201 # Co
 2 180.947906 # Ta

 Atoms # full

1 1 2 0.000000 0.000000 2.985478 1.038125 # Ta 
2 1 2 0.000000 7.756500 10.449174 11.419375 # Ta 
3 1 2 0.000000 5.171000 11.941913 1.038125 # Ta 
4 1 2 0.000000 2.585500 1.492739 11.419375 # Ta 
5 1 2 0.000000 -5.171000 11.941913 1.038125 # Ta 
6 1 2 0.000000 12.927500 1.492739 11.419375 # Ta 
7 1 2 0.000000 7.756500 10.449174 3.114375 # Ta 
8 1 2 0.000000 2.585500 1.492739 3.114375 # Ta 
9 1 2 0.000000 12.927500 1.492739 3.114375 # Ta 
10 1 2 0.000000 0.000000 2.985478 5.190625 # Ta 
11 1 2 0.000000 7.756500 10.449174 7.266875 # Ta 
12 1 2 0.000000 5.171000 11.941913 5.190625 # Ta 
13 1 2 0.000000 2.585500 1.492739 7.266875 # Ta 
14 1 2 0.000000 -5.171000 11.941913 5.190625 # Ta 
15 1 2 0.000000 12.927500 1.492739 7.266875 # Ta 
16 1 2 0.000000 0.000000 2.985478 9.343125 # Ta 
17 1 2 0.000000 5.171000 11.941913 9.343125 # Ta 
18 1 2 0.000000 -5.171000 11.941913 9.343125 # Ta 
19 1 2 0.000000 -2.585500 7.463695 1.038125 # Ta 
20 1 2 0.000000 10.342000 5.970956 11.419375 # Ta 
21 1 2 0.000000 2.585500 7.463695 1.038125 # Ta 
22 1 2 0.000000 5.171000 5.970956 11.419375 # Ta 
23 1 2 0.000000 0.000000 11.941913 1.038125 # Ta 
24 1 2 0.000000 7.756500 1.492739 11.419375 # Ta 
25 1 2 0.000000 10.342000 5.970956 3.114375 # Ta 
26 1 2 0.000000 5.171000 5.970956 3.114375 # Ta 
27 1 2 0.000000 7.756500 1.492739 3.114375 # Ta 
28 1 2 0.000000 -2.585500 7.463695 5.190625 # Ta 
29 1 2 0.000000 10.342000 5.970956 7.266875 # Ta 
30 1 2 0.000000 2.585500 7.463695 5.190625 # Ta 
31 1 2 0.000000 5.171000 5.970956 7.266875 # Ta 
32 1 2 0.000000 0.000000 11.941913 5.190625 # Ta 
33 1 2 0.000000 7.756500 1.492739 7.266875 # Ta 
34 1 2 0.000000 -2.585500 7.463695 9.343125 # Ta 
35 1 2 0.000000 2.585500 7.463695 9.343125 # Ta 
36 1 2 0.000000 0.000000 11.941913 9.343125 # Ta 
37 1 2 0.000000 5.171000 2.985478 1.038125 # Ta 
38 1 2 0.000000 2.585500 10.449174 11.419375 # Ta 
39 1 2 0.000000 10.342000 2.985478 1.038125 # Ta 
40 1 2 0.000000 -2.585500 10.449174 11.419375 # Ta 
41 1 2 0.000000 7.756500 7.463695 1.038125 # Ta 
42 1 2 0.000000 -0.000000 5.970956 11.419375 # Ta 
43 1 2 0.000000 2.585500 10.449174 3.114375 # Ta 
44 1 2 0.000000 -2.585500 10.449174 3.114375 # Ta 
45 1 2 0.000000 -0.000000 5.970956 3.114375 # Ta 
46 1 2 0.000000 5.171000 2.985478 5.190625 # Ta 
47 1 2 0.000000 2.585500 10.449174 7.266875 # Ta 
48 1 2 0.000000 10.342000 2.985478 5.190625 # Ta 
49 1 2 0.000000 -2.585500 10.449174 7.266875 # Ta 
50 1 2 0.000000 7.756500 7.463695 5.190625 # Ta 
51 1 2 0.000000 -0.000000 5.970956 7.266875 # Ta 
52 1 2 0.000000 5.171000 2.985478 9.343125 # Ta 
53 1 2 0.000000 10.342000 2.985478 9.343125 # Ta 
54 1 2 0.000000 7.756500 7.463695 9.343125 # Ta 
55 1 1 0.000000 2.585500 2.982493 1.038125 # Co 
56 1 1 0.000000 5.171000 10.452159 11.419375 # Co 
57 1 1 0.000000 11.637335 0.747862 1.038125 # Co 
58 1 1 0.000000 -3.880835 12.686790 11.419375 # Co 
59 1 1 0.000000 9.046664 9.704297 1.038125 # Co 
60 1 1 0.000000 -1.290165 3.730355 11.419375 # Co 
61 1 1 0.000000 5.171000 10.452159 3.114375 # Co 
62 1 1 0.000000 -3.880835 12.686790 3.114375 # Co 
63 1 1 0.000000 -1.290165 3.730355 3.114375 # Co 
64 1 1 0.000000 1.290165 3.730355 11.419375 # Co 
65 1 1 0.000000 6.466335 9.704297 1.038125 # Co 
66 1 1 0.000000 -5.171000 10.452159 11.419375 # Co 
67 1 1 0.000000 12.927500 2.982493 1.038125 # Co 
68 1 1 0.000000 3.880835 12.686790 11.419375 # Co 
69 1 1 0.000000 3.875664 0.747862 1.038125 # Co 
70 1 1 0.000000 1.290165 3.730355 3.114375 # Co 
71 1 1 0.000000 -5.171000 10.452159 3.114375 # Co 
72 1 1 0.000000 3.880835 12.686790 3.114375 # Co 
73 1 1 0.000000 2.585500 2.982493 5.190625 # Co 
74 1 1 0.000000 5.171000 10.452159 7.266875 # Co 
75 1 1 0.000000 11.637335 0.747862 5.190625 # Co 
76 1 1 0.000000 -3.880835 12.686790 7.266875 # Co 
77 1 1 0.000000 9.046664 9.704297 5.190625 # Co 
78 1 1 0.000000 -1.290165 3.730355 7.266875 # Co 
79 1 1 0.000000 2.585500 2.982493 9.343125 # Co 
80 1 1 0.000000 11.637335 0.747862 9.343125 # Co 
81 1 1 0.000000 9.046664 9.704297 9.343125 # Co 
82 1 1 0.000000 1.290165 3.730355 7.266875 # Co 
83 1 1 0.000000 6.466335 9.704297 5.190625 # Co 
84 1 1 0.000000 -5.171000 10.452159 7.266875 # Co 
85 1 1 0.000000 12.927500 2.982493 5.190625 # Co 
86 1 1 0.000000 3.880835 12.686790 7.266875 # Co 
87 1 1 0.000000 3.875664 0.747862 5.190625 # Co 
88 1 1 0.000000 6.466335 9.704297 9.343125 # Co 
89 1 1 0.000000 12.927500 2.982493 9.343125 # Co 
90 1 1 0.000000 3.875664 0.747862 9.343125 # Co 
91 1 1 0.000000 -0.000000 7.460710 1.038125 # Co 
92 1 1 0.000000 7.756500 5.973942 11.419375 # Co 
93 1 1 0.000000 1.295336 9.704297 1.038125 # Co 
94 1 1 0.000000 6.461164 3.730355 11.419375 # Co 
95 1 1 0.000000 -1.295335 9.704297 1.038125 # Co 
96 1 1 0.000000 9.051835 3.730355 11.419375 # Co 
97 1 1 0.000000 7.756500 5.973942 3.114375 # Co 
98 1 1 0.000000 6.461164 3.730355 3.114375 # Co 
99 1 1 0.000000 9.051835 3.730355 3.114375 # Co 
100 1 1 0.000000 -0.000000 7.460710 5.190625 # Co 
101 1 1 0.000000 7.756500 5.973942 7.266875 # Co 
102 1 1 0.000000 1.295336 9.704297 5.190625 # Co 
103 1 1 0.000000 6.461164 3.730355 7.266875 # Co 
104 1 1 0.000000 -1.295335 9.704297 5.190625 # Co 
105 1 1 0.000000 9.051835 3.730355 7.266875 # Co 
106 1 1 0.000000 -0.000000 7.460710 9.343125 # Co 
107 1 1 0.000000 1.295336 9.704297 9.343125 # Co 
108 1 1 0.000000 -1.295335 9.704297 9.343125 # Co 
109 1 1 0.000000 -2.585500 11.938927 1.038125 # Co 
110 1 1 0.000000 10.342000 1.495725 11.419375 # Co 
111 1 1 0.000000 -1.290164 5.226079 1.038125 # Co 
112 1 1 0.000000 9.046664 8.208572 11.419375 # Co 
113 1 1 0.000000 3.875664 9.704297 1.038125 # Co 
114 1 1 0.000000 3.880835 3.730355 11.419375 # Co 
115 1 1 0.000000 10.342000 1.495725 3.114375 # Co 
116 1 1 0.000000 9.046664 8.208572 3.114375 # Co 
117 1 1 0.000000 3.880835 3.730355 3.114375 # Co 
118 1 1 0.000000 11.632164 3.730355 11.419375 # Co 
119 1 1 0.000000 -3.875664 9.704297 1.038125 # Co 
120 1 1 0.000000 5.171000 1.495725 11.419375 # Co 
121 1 1 0.000000 2.585500 11.938927 1.038125 # Co 
122 1 1 0.000000 6.466335 8.208572 11.419375 # Co 
123 1 1 0.000000 1.290164 5.226079 1.038125 # Co 
124 1 1 0.000000 11.632164 3.730355 3.114375 # Co 
125 1 1 0.000000 5.171000 1.495725 3.114375 # Co 
126 1 1 0.000000 6.466335 8.208572 3.114375 # Co 
127 1 1 0.000000 -2.585500 11.938927 5.190625 # Co 
128 1 1 0.000000 10.342000 1.495725 7.266875 # Co 
129 1 1 0.000000 -1.290164 5.226079 5.190625 # Co 
130 1 1 0.000000 9.046664 8.208572 7.266875 # Co 
131 1 1 0.000000 3.875664 9.704297 5.190625 # Co 
132 1 1 0.000000 3.880835 3.730355 7.266875 # Co 
133 1 1 0.000000 -2.585500 11.938927 9.343125 # Co 
134 1 1 0.000000 -1.290164 5.226079 9.343125 # Co 
135 1 1 0.000000 3.875664 9.704297 9.343125 # Co 
136 1 1 0.000000 11.632164 3.730355 7.266875 # Co 
137 1 1 0.000000 -3.875664 9.704297 5.190625 # Co 
138 1 1 0.000000 5.171000 1.495725 7.266875 # Co 
139 1 1 0.000000 2.585500 11.938927 5.190625 # Co 
140 1 1 0.000000 6.466335 8.208572 7.266875 # Co 
141 1 1 0.000000 1.290164 5.226079 5.190625 # Co 
142 1 1 0.000000 -3.875664 9.704297 9.343125 # Co 
143 1 1 0.000000 2.585500 11.938927 9.343125 # Co 
144 1 1 0.000000 1.290164 5.226079 9.343125 # Co 
145 1 1 0.000000 7.756500 2.982493 1.038125 # Co 
146 1 1 0.000000 0.000000 10.452159 11.419375 # Co 
147 1 1 0.000000 9.051835 5.226079 1.038125 # Co 
148 1 1 0.000000 -1.295336 8.208572 11.419375 # Co 
149 1 1 0.000000 6.461164 5.226080 1.038125 # Co 
150 1 1 0.000000 1.295335 8.208572 11.419375 # Co 
151 1 1 0.000000 0.000000 10.452159 3.114375 # Co 
152 1 1 0.000000 -1.295336 8.208572 3.114375 # Co 
153 1 1 0.000000 1.295335 8.208572 3.114375 # Co 
154 1 1 0.000000 7.756500 2.982493 5.190625 # Co 
155 1 1 0.000000 0.000000 10.452159 7.266875 # Co 
156 1 1 0.000000 9.051835 5.226079 5.190625 # Co 
157 1 1 0.000000 -1.295336 8.208572 7.266875 # Co 
158 1 1 0.000000 6.461164 5.226080 5.190625 # Co 
159 1 1 0.000000 1.295335 8.208572 7.266875 # Co 
160 1 1 0.000000 7.756500 2.982493 9.343125 # Co 
161 1 1 0.000000 9.051835 5.226079 9.343125 # Co 
162 1 1 0.000000 6.461164 5.226080 9.343125 # Co 
163 1 1 0.000000 5.171000 7.460710 1.038125 # Co 
164 1 1 0.000000 2.585500 5.973942 11.419375 # Co 
165 1 1 0.000000 6.466335 0.747862 1.038125 # Co 
166 1 1 0.000000 1.290164 12.686790 11.419375 # Co 
167 1 1 0.000000 11.632164 5.226080 1.038125 # Co 
168 1 1 0.000000 -3.875664 8.208572 11.419375 # Co 
169 1 1 0.000000 2.585500 5.973942 3.114375 # Co 
170 1 1 0.000000 1.290164 12.686790 3.114375 # Co 
171 1 1 0.000000 -3.875664 8.208572 3.114375 # Co 
172 1 1 0.000000 3.875664 8.208572 11.419375 # Co 
173 1 1 0.000000 3.880835 5.226080 1.038125 # Co 
174 1 1 0.000000 -2.585500 5.973942 11.419375 # Co 
175 1 1 0.000000 10.342000 7.460710 1.038125 # Co 
176 1 1 0.000000 -1.290164 12.686790 11.419375 # Co 
177 1 1 0.000000 9.046664 0.747862 1.038125 # Co 
178 1 1 0.000000 3.875664 8.208572 3.114375 # Co 
179 1 1 0.000000 -2.585500 5.973942 3.114375 # Co 
180 1 1 0.000000 -1.290164 12.686790 3.114375 # Co 
181 1 1 0.000000 5.171000 7.460710 5.190625 # Co 
182 1 1 0.000000 2.585500 5.973942 7.266875 # Co 
183 1 1 0.000000 6.466335 0.747862 5.190625 # Co 
184 1 1 0.000000 1.290164 12.686790 7.266875 # Co 
185 1 1 0.000000 11.632164 5.226080 5.190625 # Co 
186 1 1 0.000000 -3.875664 8.208572 7.266875 # Co 
187 1 1 0.000000 5.171000 7.460710 9.343125 # Co 
188 1 1 0.000000 6.466335 0.747862 9.343125 # Co 
189 1 1 0.000000 11.632164 5.226080 9.343125 # Co 
190 1 1 0.000000 3.875664 8.208572 7.266875 # Co 
191 1 1 0.000000 3.880835 5.226080 5.190625 # Co 
192 1 1 0.000000 -2.585500 5.973942 7.266875 # Co 
193 1 1 0.000000 10.342000 7.460710 5.190625 # Co 
194 1 1 0.000000 -1.290164 12.686790 7.266875 # Co 
195 1 1 0.000000 9.046664 0.747862 5.190625 # Co 
196 1 1 0.000000 3.880835 5.226080 9.343125 # Co 
197 1 1 0.000000 10.342000 7.460710 9.343125 # Co 
198 1 1 0.000000 9.046664 0.747862 9.343125 # Co 
199 1 1 0.000000 7.756500 11.938927 1.038125 # Co 
200 1 1 0.000000 0.000000 1.495725 11.419375 # Co 
201 1 1 0.000000 1.295336 0.747862 1.038125 # Co 
202 1 1 0.000000 6.461164 12.686790 11.419375 # Co 
203 1 1 0.000000 14.217664 0.747862 1.038125 # Co 
204 1 1 0.000000 -6.461164 12.686789 11.419375 # Co 
205 1 1 0.000000 0.000000 1.495725 3.114375 # Co 
206 1 1 0.000000 6.461164 12.686790 3.114375 # Co 
207 1 1 0.000000 -6.461164 12.686789 3.114375 # Co 
208 1 1 0.000000 7.756500 11.938927 5.190625 # Co 
209 1 1 0.000000 0.000000 1.495725 7.266875 # Co 
210 1 1 0.000000 1.295336 0.747862 5.190625 # Co 
211 1 1 0.000000 6.461164 12.686790 7.266875 # Co 
212 1 1 0.000000 14.217664 0.747862 5.190625 # Co 
213 1 1 0.000000 -6.461164 12.686789 7.266875 # Co 
214 1 1 0.000000 7.756500 11.938927 9.343125 # Co 
215 1 1 0.000000 1.295336 0.747862 9.343125 # Co 
216 1 1 0.000000 14.217664 0.747862 9.343125 # Co 

