ITEM: TIMESTEP
0
ITEM: NUMBER OF ATOMS
216
ITEM: BOX BOUNDS pp pp pp
0.0000000000000000e+00 1.5500000000000000e+01
0.0000000000000000e+00 1.5500000000000000e+01
0.0000000000000000e+00 1.2500000000000000e+01
ITEM: ATOMS id type xs ys zs
1 2 0.0173173 0.127914 0.0816333
8 2 0.174976 0.0719277 0.2483
55 1 0.171764 0.19778 0.0816333
70 1 0.089958 0.231147 0.2483
37 2 0.322852 0.141696 0.0816333
98 1 0.418653 0.209237 0.2483
117 1 0.257388 0.234522 0.2483
125 1 0.349029 0.0347206 0.2483
165 1 0.434442 0.0123445 0.0816333
145 1 0.498772 0.169764 0.0816333
27 2 0.532198 0.0642634 0.2483
39 2 0.668381 0.142423 0.0816333
99 1 0.593924 0.225713 0.2483
115 1 0.697495 0.0171743 0.2483
9 2 0.867865 0.071465 0.2483
57 1 0.777769 0.0129594 0.0816333
63 1 0.933395 0.228594 0.2483
67 1 0.844539 0.177485 0.0816333
124 1 0.759805 0.216887 0.2483
21 2 0.147116 0.479661 0.0816333
45 2 0.0143605 0.399429 0.2483
123 1 0.0880904 0.319365 0.0816333
169 1 0.181027 0.370781 0.2483
26 2 0.353303 0.38709 0.2483
149 1 0.42477 0.302522 0.0816333
163 1 0.319392 0.49597 0.0816333
173 1 0.259974 0.332373 0.0816333
41 2 0.486059 0.467323 0.0816333
25 2 0.684445 0.392068 0.2483
97 1 0.516548 0.356492 0.2483
147 1 0.595269 0.318821 0.0816333
19 2 0.815974 0.474684 0.0816333
111 1 0.926324 0.328668 0.0816333
167 1 0.760088 0.307361 0.0816333
179 1 0.848256 0.360482 0.2483
43 2 0.177568 0.725056 0.2483
93 1 0.0817662 0.657515 0.0816333
151 1 0.00164708 0.696988 0.2483
153 1 0.0756494 0.56423 0.2483
113 1 0.243031 0.63223 0.0816333
178 1 0.240445 0.534378 0.2483
61 1 0.328656 0.668971 0.2483
65 1 0.410461 0.635605 0.0816333
126 1 0.412329 0.547387 0.2483
7 2 0.483102 0.738838 0.2483
175 1 0.652163 0.50627 0.0816333
59 1 0.567024 0.638158 0.0816333
71 1 0.65588 0.689267 0.2483
116 1 0.574096 0.538083 0.2483
119 1 0.740614 0.649865 0.0816333
171 1 0.740331 0.559391 0.2483
91 1 0.983871 0.510259 0.0816333
44 2 0.832038 0.724329 0.2483
95 1 0.906495 0.641039 0.0816333
152 1 0.905151 0.547931 0.2483
201 1 0.0948684 0.971418 0.0816333
205 1 0.0171619 0.999076 0.2483
121 1 0.15139 0.832031 0.0816333
170 1 0.0659778 0.854407 0.2483
72 1 0.240399 0.891519 0.2483
69 1 0.26002 0.975233 0.0816333
3 2 0.325444 0.794824 0.0816333
206 1 0.405551 0.895334 0.2483
199 1 0.483257 0.867675 0.0816333
177 1 0.609429 0.975289 0.0816333
5 2 0.632554 0.795287 0.0816333
62 1 0.722651 0.853792 0.2483
207 1 0.572769 0.896216 0.2483
203 1 0.927651 0.970536 0.0816333
23 2 0.968222 0.802488 0.0816333
109 1 0.802924 0.849577 0.0816333
180 1 0.890991 0.891463 0.2483
10 2 0.0173173 0.127914 0.414967
13 2 0.174976 0.0719277 0.581633
73 1 0.171764 0.19778 0.414967
82 1 0.089958 0.231147 0.581633
46 2 0.322852 0.141696 0.414967
103 1 0.418653 0.209237 0.581633
132 1 0.257388 0.234522 0.581633
138 1 0.349029 0.0347206 0.581633
183 1 0.434442 0.0123445 0.414967
154 1 0.498772 0.169764 0.414967
33 2 0.532198 0.0642635 0.581633
48 2 0.668381 0.142423 0.414967
105 1 0.593924 0.225713 0.581633
128 1 0.697495 0.0171743 0.581633
15 2 0.867865 0.071465 0.581633
75 1 0.777769 0.0129594 0.414967
78 1 0.933395 0.228594 0.581633
85 1 0.844539 0.177485 0.414967
136 1 0.759805 0.216887 0.581633
30 2 0.147116 0.479661 0.414967
51 2 0.0143605 0.399429 0.581633
141 1 0.0880904 0.319365 0.414967
182 1 0.181027 0.370781 0.581633
31 2 0.353303 0.38709 0.581633
158 1 0.42477 0.302522 0.414967
181 1 0.319392 0.49597 0.414967
191 1 0.259974 0.332373 0.414967
50 2 0.486059 0.467323 0.414967
29 2 0.684445 0.392068 0.581633
101 1 0.516548 0.356492 0.581633
156 1 0.595269 0.318821 0.414967
28 2 0.815974 0.474684 0.414967
129 1 0.926324 0.328668 0.414967
185 1 0.760088 0.307361 0.414967
192 1 0.848256 0.360482 0.581633
47 2 0.177568 0.725056 0.581633
102 1 0.0817662 0.657515 0.414967
155 1 0.00164708 0.696988 0.581633
159 1 0.0756494 0.56423 0.581633
131 1 0.243031 0.63223 0.414967
190 1 0.240445 0.534378 0.581633
74 1 0.328656 0.668971 0.581633
83 1 0.410461 0.635605 0.414967
140 1 0.412329 0.547387 0.581633
11 2 0.483102 0.738838 0.581633
193 1 0.652163 0.50627 0.414967
77 1 0.567024 0.638158 0.414967
84 1 0.65588 0.689267 0.581633
130 1 0.574096 0.538083 0.581633
137 1 0.740614 0.649865 0.414967
186 1 0.740331 0.559391 0.581633
100 1 0.983871 0.510259 0.414967
49 2 0.832038 0.724329 0.581633
104 1 0.906495 0.641039 0.414967
157 1 0.905151 0.547931 0.581633
209 1 0.0171619 0.999076 0.581633
210 1 0.0948684 0.971418 0.414967
139 1 0.15139 0.832031 0.414967
184 1 0.0659778 0.854407 0.581633
86 1 0.240399 0.891519 0.581633
87 1 0.26002 0.975233 0.414967
12 2 0.325444 0.794824 0.414967
211 1 0.405551 0.895334 0.581633
208 1 0.483257 0.867675 0.414967
195 1 0.609429 0.975289 0.414967
14 2 0.632554 0.795287 0.414967
76 1 0.722651 0.853792 0.581633
213 1 0.572769 0.896216 0.581633
212 1 0.927651 0.970536 0.414967
32 2 0.968222 0.802488 0.414967
127 1 0.802924 0.849577 0.414967
194 1 0.890991 0.891463 0.581633
4 2 0.174976 0.0719277 0.914967
16 2 0.0173173 0.127914 0.7483
64 1 0.089958 0.231147 0.914967
79 1 0.171764 0.19778 0.7483
52 2 0.322852 0.141696 0.7483
94 1 0.418653 0.209237 0.914967
114 1 0.257388 0.234522 0.914967
120 1 0.349029 0.0347206 0.914967
188 1 0.434442 0.0123445 0.7483
160 1 0.498772 0.169764 0.7483
24 2 0.532198 0.0642634 0.914967
53 2 0.668381 0.142423 0.7483
96 1 0.593924 0.225713 0.914967
110 1 0.697495 0.0171743 0.914967
6 2 0.867865 0.071465 0.914967
60 1 0.933395 0.228594 0.914967
80 1 0.777769 0.0129594 0.7483
89 1 0.844539 0.177485 0.7483
118 1 0.759805 0.216887 0.914967
35 2 0.147116 0.479661 0.7483
42 2 0.0143605 0.399429 0.914967
144 1 0.0880904 0.319365 0.7483
164 1 0.181027 0.370781 0.914967
22 2 0.353303 0.38709 0.914967
162 1 0.42477 0.302522 0.7483
187 1 0.319392 0.49597 0.7483
196 1 0.259974 0.332373 0.7483
54 2 0.486059 0.467323 0.7483
20 2 0.684445 0.392068 0.914967
92 1 0.516548 0.356492 0.914967
161 1 0.595269 0.318821 0.7483
34 2 0.815974 0.474684 0.7483
134 1 0.926324 0.328668 0.7483
174 1 0.848256 0.360482 0.914967
189 1 0.760088 0.307361 0.7483
38 2 0.177568 0.725056 0.914967
107 1 0.0817662 0.657515 0.7483
146 1 0.00164708 0.696988 0.914967
150 1 0.0756494 0.56423 0.914967
135 1 0.243031 0.63223 0.7483
172 1 0.240445 0.534378 0.914967
56 1 0.328656 0.668971 0.914967
88 1 0.410461 0.635605 0.7483
122 1 0.412329 0.547387 0.914967
2 2 0.483102 0.738838 0.914967
197 1 0.652163 0.50627 0.7483
66 1 0.65588 0.689267 0.914967
81 1 0.567024 0.638158 0.7483
112 1 0.574096 0.538083 0.914967
142 1 0.740614 0.649865 0.7483
168 1 0.740331 0.559391 0.914967
106 1 0.983871 0.510259 0.7483
40 2 0.832038 0.724329 0.914967
108 1 0.906495 0.641039 0.7483
148 1 0.905151 0.547931 0.914967
200 1 0.0171619 0.999076 0.914967
215 1 0.0948684 0.971418 0.7483
143 1 0.15139 0.832031 0.7483
166 1 0.0659778 0.854407 0.914967
68 1 0.240399 0.891519 0.914967
90 1 0.26002 0.975233 0.7483
17 2 0.325444 0.794824 0.7483
202 1 0.405551 0.895334 0.914967
214 1 0.483257 0.867675 0.7483
198 1 0.609429 0.975289 0.7483
18 2 0.632554 0.795287 0.7483
58 1 0.722651 0.853792 0.914967
204 1 0.572769 0.896216 0.914967
216 1 0.927651 0.970536 0.7483
36 2 0.968222 0.802488 0.7483
133 1 0.802924 0.849577 0.7483
176 1 0.890991 0.891463 0.914967
ITEM: TIMESTEP
100
ITEM: NUMBER OF ATOMS
216
ITEM: BOX BOUNDS pp pp pp
0.0000000000000000e+00 1.5500000000000000e+01
0.0000000000000000e+00 1.5500000000000000e+01
0.0000000000000000e+00 1.2500000000000000e+01
ITEM: ATOMS id type xs ys zs
1 2 0.0173173 0.127914 0.0816333
8 2 0.174976 0.0719277 0.2483
55 1 0.171764 0.19778 0.0816333
70 1 0.089958 0.231147 0.2483
37 2 0.322852 0.141696 0.0816333
98 1 0.418653 0.209237 0.2483
117 1 0.257388 0.234522 0.2483
125 1 0.349029 0.0347206 0.2483
165 1 0.434442 0.0123445 0.0816333
145 1 0.498772 0.169764 0.0816333
27 2 0.532198 0.0642634 0.2483
39 2 0.668381 0.142423 0.0816333
99 1 0.593924 0.225713 0.2483
115 1 0.697495 0.0171743 0.2483
9 2 0.867865 0.071465 0.2483
57 1 0.777769 0.0129594 0.0816333
63 1 0.933395 0.228594 0.2483
67 1 0.844539 0.177485 0.0816333
124 1 0.759805 0.216887 0.2483
21 2 0.147116 0.479661 0.0816333
45 2 0.0143605 0.399429 0.2483
123 1 0.0880904 0.319365 0.0816333
169 1 0.181027 0.370781 0.2483
26 2 0.353303 0.38709 0.2483
149 1 0.42477 0.302522 0.0816333
163 1 0.319392 0.49597 0.0816333
173 1 0.259974 0.332373 0.0816333
41 2 0.486059 0.467323 0.0816333
25 2 0.684445 0.392068 0.2483
97 1 0.516548 0.356492 0.2483
147 1 0.595269 0.318821 0.0816333
19 2 0.815974 0.474684 0.0816333
111 1 0.926324 0.328668 0.0816333
167 1 0.760088 0.307361 0.0816333
179 1 0.848256 0.360482 0.2483
43 2 0.177568 0.725056 0.2483
93 1 0.0817662 0.657515 0.0816333
151 1 0.00164708 0.696988 0.2483
153 1 0.0756494 0.56423 0.2483
113 1 0.243031 0.63223 0.0816333
178 1 0.240445 0.534378 0.2483
61 1 0.328656 0.668971 0.2483
65 1 0.410461 0.635605 0.0816333
126 1 0.412329 0.547387 0.2483
7 2 0.483102 0.738838 0.2483
175 1 0.652163 0.50627 0.0816333
59 1 0.567024 0.638158 0.0816333
71 1 0.65588 0.689267 0.2483
116 1 0.574096 0.538083 0.2483
119 1 0.740614 0.649865 0.0816333
171 1 0.740331 0.559391 0.2483
91 1 0.983871 0.510259 0.0816333
44 2 0.832038 0.724329 0.2483
95 1 0.906495 0.641039 0.0816333
152 1 0.905151 0.547931 0.2483
201 1 0.0948684 0.971418 0.0816333
205 1 0.0171619 0.999076 0.2483
121 1 0.15139 0.832031 0.0816333
170 1 0.0659778 0.854407 0.2483
72 1 0.240399 0.891519 0.2483
69 1 0.26002 0.975233 0.0816333
3 2 0.325444 0.794824 0.0816333
206 1 0.405551 0.895334 0.2483
199 1 0.483257 0.867675 0.0816333
177 1 0.609429 0.975289 0.0816333
5 2 0.632554 0.795287 0.0816333
62 1 0.722651 0.853792 0.2483
207 1 0.572769 0.896216 0.2483
203 1 0.927651 0.970536 0.0816333
23 2 0.968222 0.802488 0.0816333
109 1 0.802924 0.849577 0.0816333
180 1 0.890991 0.891463 0.2483
10 2 0.0173173 0.127914 0.414967
13 2 0.174976 0.0719277 0.581633
73 1 0.171764 0.19778 0.414967
82 1 0.089958 0.231147 0.581633
46 2 0.322852 0.141696 0.414967
103 1 0.418653 0.209237 0.581633
132 1 0.257388 0.234522 0.581633
138 1 0.349029 0.0347206 0.581633
183 1 0.434442 0.0123445 0.414967
154 1 0.498772 0.169764 0.414967
33 2 0.532198 0.0642634 0.581633
48 2 0.668381 0.142423 0.414967
105 1 0.593924 0.225713 0.581633
128 1 0.697495 0.0171743 0.581633
15 2 0.867865 0.071465 0.581633
75 1 0.777769 0.0129594 0.414967
78 1 0.933395 0.228594 0.581633
85 1 0.844539 0.177485 0.414967
136 1 0.759805 0.216887 0.581633
30 2 0.147116 0.479661 0.414967
51 2 0.0143605 0.399429 0.581633
141 1 0.0880904 0.319365 0.414967
182 1 0.181027 0.370781 0.581633
31 2 0.353303 0.38709 0.581633
158 1 0.42477 0.302522 0.414967
181 1 0.319392 0.49597 0.414967
191 1 0.259974 0.332373 0.414967
50 2 0.486059 0.467323 0.414967
29 2 0.684445 0.392068 0.581633
101 1 0.516548 0.356492 0.581633
156 1 0.595269 0.318821 0.414967
28 2 0.815974 0.474684 0.414967
129 1 0.926324 0.328668 0.414967
185 1 0.760088 0.307361 0.414967
192 1 0.848256 0.360482 0.581633
47 2 0.177568 0.725056 0.581633
102 1 0.0817662 0.657515 0.414967
155 1 0.00164708 0.696988 0.581633
159 1 0.0756494 0.56423 0.581633
131 1 0.243031 0.63223 0.414967
190 1 0.240445 0.534378 0.581633
74 1 0.328656 0.668971 0.581633
83 1 0.410461 0.635605 0.414967
140 1 0.412329 0.547387 0.581633
11 2 0.483102 0.738838 0.581633
193 1 0.652163 0.50627 0.414967
77 1 0.567024 0.638158 0.414967
84 1 0.65588 0.689267 0.581633
130 1 0.574096 0.538083 0.581633
137 1 0.740614 0.649865 0.414967
186 1 0.740331 0.559391 0.581633
100 1 0.983871 0.510259 0.414967
49 2 0.832038 0.724329 0.581633
104 1 0.906495 0.641039 0.414967
157 1 0.905151 0.547931 0.581633
209 1 0.0171619 0.999076 0.581633
210 1 0.0948684 0.971418 0.414967
139 1 0.15139 0.832031 0.414967
184 1 0.0659778 0.854407 0.581633
86 1 0.240399 0.891519 0.581633
87 1 0.26002 0.975233 0.414967
12 2 0.325444 0.794824 0.414967
211 1 0.405551 0.895334 0.581633
208 1 0.483257 0.867675 0.414967
195 1 0.609429 0.975289 0.414967
14 2 0.632554 0.795287 0.414967
76 1 0.722651 0.853792 0.581633
213 1 0.572769 0.896216 0.581633
212 1 0.927651 0.970536 0.414967
32 2 0.968222 0.802488 0.414967
127 1 0.802924 0.849577 0.414967
194 1 0.890991 0.891463 0.581633
4 2 0.174976 0.0719277 0.914967
16 2 0.0173173 0.127914 0.7483
64 1 0.089958 0.231147 0.914967
79 1 0.171764 0.19778 0.7483
52 2 0.322852 0.141696 0.7483
94 1 0.418653 0.209237 0.914967
114 1 0.257388 0.234522 0.914967
120 1 0.349029 0.0347206 0.914967
188 1 0.434442 0.0123445 0.7483
160 1 0.498772 0.169764 0.7483
24 2 0.532198 0.0642634 0.914967
53 2 0.668381 0.142423 0.7483
96 1 0.593924 0.225713 0.914967
110 1 0.697495 0.0171743 0.914967
6 2 0.867865 0.071465 0.914967
60 1 0.933395 0.228594 0.914967
80 1 0.777769 0.0129594 0.7483
89 1 0.844539 0.177485 0.7483
118 1 0.759805 0.216887 0.914967
35 2 0.147116 0.479661 0.7483
42 2 0.0143605 0.399429 0.914967
144 1 0.0880904 0.319365 0.7483
164 1 0.181027 0.370781 0.914967
22 2 0.353303 0.38709 0.914967
162 1 0.42477 0.302522 0.7483
187 1 0.319392 0.49597 0.7483
196 1 0.259974 0.332373 0.7483
54 2 0.486059 0.467323 0.7483
20 2 0.684445 0.392068 0.914967
92 1 0.516548 0.356492 0.914967
161 1 0.595269 0.318821 0.7483
34 2 0.815974 0.474684 0.7483
134 1 0.926324 0.328668 0.7483
174 1 0.848256 0.360482 0.914967
189 1 0.760088 0.307361 0.7483
38 2 0.177568 0.725056 0.914967
107 1 0.0817662 0.657515 0.7483
146 1 0.00164708 0.696988 0.914967
150 1 0.0756494 0.56423 0.914967
135 1 0.243031 0.63223 0.7483
172 1 0.240445 0.534378 0.914967
56 1 0.328656 0.668971 0.914967
88 1 0.410461 0.635605 0.7483
122 1 0.412329 0.547387 0.914967
2 2 0.483102 0.738838 0.914967
197 1 0.652163 0.50627 0.7483
66 1 0.65588 0.689267 0.914967
81 1 0.567024 0.638158 0.7483
112 1 0.574096 0.538083 0.914967
142 1 0.740614 0.649865 0.7483
168 1 0.740331 0.559391 0.914967
106 1 0.983871 0.510259 0.7483
40 2 0.832038 0.724329 0.914967
108 1 0.906495 0.641039 0.7483
148 1 0.905151 0.547931 0.914967
200 1 0.0171619 0.999076 0.914967
215 1 0.0948684 0.971418 0.7483
143 1 0.15139 0.832031 0.7483
166 1 0.0659778 0.854407 0.914967
68 1 0.240399 0.891519 0.914967
90 1 0.26002 0.975233 0.7483
17 2 0.325444 0.794824 0.7483
202 1 0.405551 0.895334 0.914967
214 1 0.483257 0.867675 0.7483
198 1 0.609429 0.975289 0.7483
18 2 0.632554 0.795287 0.7483
58 1 0.722651 0.853792 0.914967
204 1 0.572769 0.896216 0.914967
216 1 0.927651 0.970536 0.7483
36 2 0.968222 0.802488 0.7483
133 1 0.802924 0.849577 0.7483
176 1 0.890991 0.891463 0.914967
ITEM: TIMESTEP
200
ITEM: NUMBER OF ATOMS
216
ITEM: BOX BOUNDS pp pp pp
0.0000000000000000e+00 1.5500000000000000e+01
0.0000000000000000e+00 1.5500000000000000e+01
0.0000000000000000e+00 1.2500000000000000e+01
ITEM: ATOMS id type xs ys zs
1 2 0.0173173 0.127914 0.0816333
8 2 0.174976 0.0719277 0.2483
55 1 0.171764 0.19778 0.0816333
70 1 0.089958 0.231147 0.2483
37 2 0.322852 0.141696 0.0816333
98 1 0.418653 0.209237 0.2483
117 1 0.257388 0.234522 0.2483
125 1 0.349029 0.0347206 0.2483
165 1 0.434442 0.0123445 0.0816333
145 1 0.498772 0.169764 0.0816333
27 2 0.532198 0.0642635 0.2483
39 2 0.668381 0.142423 0.0816333
99 1 0.593924 0.225713 0.2483
115 1 0.697495 0.0171743 0.2483
9 2 0.867865 0.071465 0.2483
57 1 0.777769 0.0129594 0.0816333
63 1 0.933395 0.228594 0.2483
67 1 0.84454 0.177485 0.0816333
124 1 0.759805 0.216887 0.2483
21 2 0.147116 0.479661 0.0816333
45 2 0.0143605 0.399429 0.2483
123 1 0.0880904 0.319365 0.0816333
169 1 0.181027 0.370781 0.2483
26 2 0.353303 0.38709 0.2483
149 1 0.42477 0.302522 0.0816333
163 1 0.319392 0.49597 0.0816333
173 1 0.259974 0.332373 0.0816333
41 2 0.486059 0.467323 0.0816333
25 2 0.684445 0.392068 0.2483
97 1 0.516548 0.356492 0.2483
147 1 0.595269 0.318821 0.0816333
19 2 0.815974 0.474684 0.0816333
111 1 0.926324 0.328668 0.0816333
167 1 0.760088 0.307361 0.0816333
179 1 0.848256 0.360482 0.2483
43 2 0.177568 0.725056 0.2483
93 1 0.0817662 0.657515 0.0816333
151 1 0.00164707 0.696988 0.2483
153 1 0.0756494 0.56423 0.2483
113 1 0.243031 0.63223 0.0816333
178 1 0.240445 0.534378 0.2483
61 1 0.328656 0.668971 0.2483
65 1 0.410461 0.635605 0.0816333
126 1 0.412329 0.547387 0.2483
7 2 0.483102 0.738838 0.2483
175 1 0.652163 0.50627 0.0816333
59 1 0.567024 0.638158 0.0816333
71 1 0.65588 0.689267 0.2483
116 1 0.574096 0.538083 0.2483
119 1 0.740614 0.649865 0.0816333
171 1 0.740331 0.559391 0.2483
91 1 0.983871 0.510259 0.0816333
44 2 0.832038 0.724329 0.2483
95 1 0.906495 0.641039 0.0816333
152 1 0.905151 0.547931 0.2483
201 1 0.0948684 0.971418 0.0816333
205 1 0.0171619 0.999076 0.2483
121 1 0.15139 0.832031 0.0816333
170 1 0.0659778 0.854407 0.2483
72 1 0.240399 0.891519 0.2483
69 1 0.26002 0.975233 0.0816333
3 2 0.325444 0.794824 0.0816333
206 1 0.405551 0.895334 0.2483
199 1 0.483257 0.867675 0.0816333
177 1 0.609429 0.975289 0.0816333
5 2 0.632554 0.795287 0.0816333
62 1 0.722651 0.853792 0.2483
207 1 0.572769 0.896216 0.2483
203 1 0.927651 0.970536 0.0816333
23 2 0.968222 0.802488 0.0816333
109 1 0.802924 0.849577 0.0816333
180 1 0.890991 0.891463 0.2483
10 2 0.0173173 0.127914 0.414967
13 2 0.174976 0.0719277 0.581633
73 1 0.171764 0.19778 0.414967
82 1 0.089958 0.231147 0.581633
46 2 0.322852 0.141696 0.414967
103 1 0.418653 0.209237 0.581633
132 1 0.257388 0.234522 0.581633
138 1 0.349029 0.0347206 0.581633
183 1 0.434442 0.0123445 0.414967
154 1 0.498772 0.169764 0.414967
33 2 0.532198 0.0642634 0.581633
48 2 0.668381 0.142423 0.414967
105 1 0.593924 0.225713 0.581633
128 1 0.697495 0.0171743 0.581633
15 2 0.867865 0.071465 0.581633
75 1 0.777769 0.0129594 0.414967
78 1 0.933395 0.228594 0.581633
85 1 0.84454 0.177485 0.414967
136 1 0.759805 0.216887 0.581633
30 2 0.147116 0.479661 0.414967
51 2 0.0143605 0.399429 0.581633
141 1 0.0880904 0.319365 0.414967
182 1 0.181027 0.370781 0.581633
31 2 0.353303 0.38709 0.581633
158 1 0.42477 0.302522 0.414967
181 1 0.319392 0.49597 0.414967
191 1 0.259974 0.332373 0.414967
50 2 0.486059 0.467323 0.414967
29 2 0.684445 0.392068 0.581633
101 1 0.516548 0.356492 0.581633
156 1 0.595269 0.318821 0.414967
28 2 0.815974 0.474684 0.414967
129 1 0.926324 0.328668 0.414967
185 1 0.760088 0.307361 0.414967
192 1 0.848256 0.360482 0.581633
47 2 0.177568 0.725056 0.581633
102 1 0.0817662 0.657515 0.414967
155 1 0.00164707 0.696988 0.581633
159 1 0.0756494 0.56423 0.581633
131 1 0.243031 0.63223 0.414967
190 1 0.240445 0.534378 0.581633
74 1 0.328656 0.668971 0.581633
83 1 0.410461 0.635605 0.414967
140 1 0.412329 0.547387 0.581633
11 2 0.483102 0.738838 0.581633
193 1 0.652163 0.50627 0.414967
77 1 0.567024 0.638158 0.414967
84 1 0.65588 0.689267 0.581633
130 1 0.574096 0.538083 0.581633
137 1 0.740614 0.649865 0.414967
186 1 0.740331 0.559391 0.581633
100 1 0.983871 0.510259 0.414967
49 2 0.832038 0.724329 0.581633
104 1 0.906495 0.641039 0.414967
157 1 0.905151 0.547931 0.581633
209 1 0.0171619 0.999076 0.581633
210 1 0.0948684 0.971418 0.414967
139 1 0.15139 0.832031 0.414967
184 1 0.0659778 0.854407 0.581633
86 1 0.240399 0.891519 0.581633
87 1 0.26002 0.975233 0.414967
12 2 0.325444 0.794824 0.414967
211 1 0.405551 0.895334 0.581633
208 1 0.483257 0.867675 0.414967
195 1 0.609429 0.975289 0.414967
14 2 0.632554 0.795287 0.414967
76 1 0.722651 0.853792 0.581633
213 1 0.572769 0.896216 0.581633
212 1 0.927651 0.970536 0.414967
32 2 0.968222 0.802488 0.414967
127 1 0.802924 0.849577 0.414967
194 1 0.890991 0.891463 0.581633
4 2 0.174976 0.0719277 0.914967
16 2 0.0173173 0.127914 0.7483
64 1 0.089958 0.231147 0.914967
79 1 0.171764 0.19778 0.7483
52 2 0.322852 0.141696 0.7483
94 1 0.418653 0.209237 0.914967
114 1 0.257388 0.234522 0.914967
120 1 0.349029 0.0347206 0.914967
188 1 0.434442 0.0123445 0.7483
160 1 0.498772 0.169764 0.7483
24 2 0.532198 0.0642634 0.914967
53 2 0.668381 0.142423 0.7483
96 1 0.593924 0.225713 0.914967
110 1 0.697495 0.0171743 0.914967
6 2 0.867865 0.071465 0.914967
60 1 0.933395 0.228594 0.914967
80 1 0.777769 0.0129594 0.7483
89 1 0.84454 0.177485 0.7483
118 1 0.759805 0.216887 0.914967
35 2 0.147116 0.479661 0.7483
42 2 0.0143605 0.399429 0.914967
144 1 0.0880904 0.319365 0.7483
164 1 0.181027 0.370781 0.914967
22 2 0.353303 0.38709 0.914967
162 1 0.42477 0.302522 0.7483
187 1 0.319392 0.49597 0.7483
196 1 0.259974 0.332373 0.7483
54 2 0.486059 0.467323 0.7483
20 2 0.684445 0.392068 0.914967
92 1 0.516548 0.356492 0.914967
161 1 0.595269 0.318821 0.7483
34 2 0.815974 0.474684 0.7483
134 1 0.926324 0.328668 0.7483
174 1 0.848256 0.360482 0.914967
189 1 0.760088 0.307361 0.7483
38 2 0.177568 0.725056 0.914967
107 1 0.0817662 0.657515 0.7483
146 1 0.00164707 0.696988 0.914967
150 1 0.0756494 0.56423 0.914967
135 1 0.243031 0.63223 0.7483
172 1 0.240445 0.534378 0.914967
56 1 0.328656 0.668971 0.914967
88 1 0.410461 0.635605 0.7483
122 1 0.412329 0.547387 0.914967
2 2 0.483102 0.738838 0.914967
197 1 0.652163 0.50627 0.7483
66 1 0.65588 0.689267 0.914967
81 1 0.567024 0.638158 0.7483
112 1 0.574096 0.538083 0.914967
142 1 0.740614 0.649865 0.7483
168 1 0.740331 0.559391 0.914967
106 1 0.983871 0.510259 0.7483
40 2 0.832038 0.724329 0.914967
108 1 0.906495 0.641039 0.7483
148 1 0.905151 0.547931 0.914967
200 1 0.0171619 0.999076 0.914967
215 1 0.0948684 0.971418 0.7483
143 1 0.15139 0.832031 0.7483
166 1 0.0659778 0.854407 0.914967
68 1 0.240399 0.891519 0.914967
90 1 0.26002 0.975233 0.7483
17 2 0.325444 0.794824 0.7483
202 1 0.405551 0.895334 0.914967
214 1 0.483257 0.867675 0.7483
198 1 0.609429 0.975289 0.7483
18 2 0.632554 0.795287 0.7483
58 1 0.722651 0.853792 0.914967
204 1 0.572769 0.896216 0.914967
216 1 0.927651 0.970536 0.7483
36 2 0.968222 0.802488 0.7483
133 1 0.802924 0.849577 0.7483
176 1 0.890991 0.891463 0.914967
ITEM: TIMESTEP
300
ITEM: NUMBER OF ATOMS
216
ITEM: BOX BOUNDS pp pp pp
0.0000000000000000e+00 1.5500000000000000e+01
0.0000000000000000e+00 1.5500000000000000e+01
0.0000000000000000e+00 1.2500000000000000e+01
ITEM: ATOMS id type xs ys zs
1 2 0.0173173 0.127914 0.0816333
8 2 0.174976 0.0719277 0.2483
55 1 0.171764 0.19778 0.0816333
70 1 0.089958 0.231147 0.2483
37 2 0.322852 0.141696 0.0816333
98 1 0.418653 0.209237 0.2483
117 1 0.257388 0.234522 0.2483
125 1 0.349029 0.0347206 0.2483
165 1 0.434442 0.0123445 0.0816333
145 1 0.498772 0.169764 0.0816333
27 2 0.532198 0.0642635 0.2483
39 2 0.668381 0.142423 0.0816333
99 1 0.593924 0.225713 0.2483
115 1 0.697495 0.0171743 0.2483
9 2 0.867865 0.071465 0.2483
57 1 0.777769 0.0129594 0.0816333
63 1 0.933395 0.228594 0.2483
67 1 0.84454 0.177485 0.0816333
124 1 0.759805 0.216887 0.2483
21 2 0.147116 0.479661 0.0816333
45 2 0.0143605 0.399429 0.2483
123 1 0.0880904 0.319365 0.0816333
169 1 0.181027 0.370781 0.2483
26 2 0.353303 0.38709 0.2483
149 1 0.42477 0.302522 0.0816333
163 1 0.319392 0.49597 0.0816333
173 1 0.259974 0.332373 0.0816333
41 2 0.486059 0.467323 0.0816333
25 2 0.684445 0.392068 0.2483
97 1 0.516548 0.356492 0.2483
147 1 0.595269 0.318821 0.0816333
19 2 0.815974 0.474684 0.0816333
111 1 0.926324 0.328668 0.0816333
167 1 0.760088 0.307361 0.0816333
179 1 0.848256 0.360482 0.2483
43 2 0.177568 0.725056 0.2483
93 1 0.0817662 0.657515 0.0816333
151 1 0.00164706 0.696988 0.2483
153 1 0.0756494 0.56423 0.2483
113 1 0.243031 0.63223 0.0816333
178 1 0.240445 0.534378 0.2483
61 1 0.328656 0.668971 0.2483
65 1 0.410461 0.635605 0.0816333
126 1 0.412329 0.547387 0.2483
7 2 0.483102 0.738838 0.2483
175 1 0.652163 0.50627 0.0816333
59 1 0.567024 0.638158 0.0816333
71 1 0.65588 0.689267 0.2483
116 1 0.574096 0.538083 0.2483
119 1 0.740614 0.649865 0.0816333
171 1 0.740331 0.559391 0.2483
91 1 0.983871 0.510259 0.0816333
44 2 0.832038 0.724329 0.2483
95 1 0.906495 0.641039 0.0816333
152 1 0.905151 0.547931 0.2483
201 1 0.0948684 0.971418 0.0816333
205 1 0.0171619 0.999076 0.2483
121 1 0.15139 0.832031 0.0816333
170 1 0.0659778 0.854407 0.2483
72 1 0.240399 0.891519 0.2483
69 1 0.26002 0.975233 0.0816333
3 2 0.325444 0.794824 0.0816333
206 1 0.405551 0.895334 0.2483
199 1 0.483257 0.867675 0.0816333
177 1 0.609429 0.975289 0.0816333
5 2 0.632554 0.795287 0.0816333
62 1 0.722651 0.853792 0.2483
207 1 0.572769 0.896216 0.2483
203 1 0.927651 0.970536 0.0816333
23 2 0.968222 0.802488 0.0816333
109 1 0.802924 0.849577 0.0816333
180 1 0.890991 0.891463 0.2483
10 2 0.0173173 0.127914 0.414967
13 2 0.174976 0.0719277 0.581633
73 1 0.171764 0.19778 0.414967
82 1 0.089958 0.231147 0.581633
46 2 0.322852 0.141696 0.414967
103 1 0.418653 0.209237 0.581633
132 1 0.257388 0.234522 0.581633
138 1 0.349029 0.0347206 0.581633
183 1 0.434442 0.0123445 0.414967
154 1 0.498772 0.169764 0.414967
33 2 0.532198 0.0642634 0.581633
48 2 0.668381 0.142423 0.414967
105 1 0.593924 0.225713 0.581633
128 1 0.697495 0.0171742 0.581633
15 2 0.867865 0.071465 0.581633
75 1 0.777769 0.0129594 0.414967
78 1 0.933395 0.228594 0.581633
85 1 0.84454 0.177485 0.414967
136 1 0.759805 0.216887 0.581633
30 2 0.147116 0.479661 0.414967
51 2 0.0143605 0.399429 0.581633
141 1 0.0880904 0.319365 0.414967
182 1 0.181027 0.370781 0.581633
31 2 0.353303 0.38709 0.581633
158 1 0.42477 0.302522 0.414967
181 1 0.319392 0.49597 0.414967
191 1 0.259974 0.332373 0.414967
50 2 0.486059 0.467323 0.414967
29 2 0.684445 0.392068 0.581633
101 1 0.516548 0.356492 0.581633
156 1 0.595269 0.318821 0.414967
28 2 0.815974 0.474684 0.414967
129 1 0.926324 0.328668 0.414967
185 1 0.760088 0.307361 0.414967
192 1 0.848256 0.360482 0.581633
47 2 0.177568 0.725056 0.581633
102 1 0.0817662 0.657515 0.414967
155 1 0.00164706 0.696988 0.581633
159 1 0.0756494 0.56423 0.581633
131 1 0.243031 0.63223 0.414967
190 1 0.240445 0.534378 0.581633
74 1 0.328656 0.668971 0.581633
83 1 0.410461 0.635605 0.414967
140 1 0.412329 0.547387 0.581633
11 2 0.483102 0.738838 0.581633
193 1 0.652163 0.50627 0.414967
77 1 0.567024 0.638158 0.414967
84 1 0.65588 0.689267 0.581633
130 1 0.574096 0.538083 0.581633
137 1 0.740614 0.649865 0.414967
186 1 0.740331 0.559391 0.581633
100 1 0.983871 0.510259 0.414967
49 2 0.832038 0.724329 0.581633
104 1 0.906495 0.641039 0.414967
157 1 0.905151 0.547931 0.581633
209 1 0.0171619 0.999076 0.581633
210 1 0.0948684 0.971418 0.414967
139 1 0.15139 0.832031 0.414967
184 1 0.0659778 0.854407 0.581633
86 1 0.240399 0.891519 0.581633
87 1 0.26002 0.975233 0.414967
12 2 0.325444 0.794824 0.414967
211 1 0.405551 0.895334 0.581633
208 1 0.483257 0.867675 0.414967
195 1 0.609429 0.975289 0.414967
14 2 0.632554 0.795287 0.414967
76 1 0.722651 0.853792 0.581633
213 1 0.572769 0.896216 0.581633
212 1 0.927651 0.970536 0.414967
32 2 0.968222 0.802488 0.414967
127 1 0.802924 0.849577 0.414967
194 1 0.890991 0.891463 0.581633
4 2 0.174976 0.0719277 0.914967
16 2 0.0173173 0.127914 0.7483
64 1 0.089958 0.231147 0.914967
79 1 0.171764 0.19778 0.7483
52 2 0.322852 0.141696 0.7483
94 1 0.418653 0.209237 0.914967
114 1 0.257388 0.234522 0.914967
120 1 0.349029 0.0347206 0.914967
188 1 0.434442 0.0123445 0.7483
160 1 0.498772 0.169764 0.7483
24 2 0.532198 0.0642635 0.914967
53 2 0.668381 0.142423 0.7483
96 1 0.593924 0.225713 0.914967
110 1 0.697495 0.0171743 0.914967
6 2 0.867865 0.071465 0.914967
60 1 0.933395 0.228594 0.914967
80 1 0.777769 0.0129594 0.7483
89 1 0.84454 0.177485 0.7483
118 1 0.759805 0.216887 0.914967
35 2 0.147116 0.479661 0.7483
42 2 0.0143605 0.399429 0.914967
144 1 0.0880904 0.319365 0.7483
164 1 0.181027 0.370781 0.914967
22 2 0.353303 0.38709 0.914967
162 1 0.42477 0.302522 0.7483
187 1 0.319392 0.49597 0.7483
196 1 0.259974 0.332373 0.7483
54 2 0.486059 0.467323 0.7483
20 2 0.684445 0.392068 0.914967
92 1 0.516548 0.356492 0.914967
161 1 0.595269 0.318821 0.7483
34 2 0.815974 0.474684 0.7483
134 1 0.926324 0.328668 0.7483
174 1 0.848256 0.360482 0.914967
189 1 0.760088 0.307361 0.7483
38 2 0.177568 0.725056 0.914967
107 1 0.0817662 0.657515 0.7483
146 1 0.00164706 0.696988 0.914967
150 1 0.0756494 0.56423 0.914967
135 1 0.243031 0.63223 0.7483
172 1 0.240445 0.534378 0.914967
56 1 0.328656 0.668971 0.914967
88 1 0.410461 0.635605 0.7483
122 1 0.412329 0.547387 0.914967
2 2 0.483102 0.738838 0.914967
197 1 0.652163 0.50627 0.7483
66 1 0.65588 0.689267 0.914967
81 1 0.567024 0.638158 0.7483
112 1 0.574096 0.538083 0.914967
142 1 0.740614 0.649865 0.7483
168 1 0.740331 0.559391 0.914967
106 1 0.983871 0.510259 0.7483
40 2 0.832038 0.724329 0.914967
108 1 0.906495 0.641039 0.7483
148 1 0.905151 0.547931 0.914967
200 1 0.0171619 0.999076 0.914967
215 1 0.0948684 0.971418 0.7483
143 1 0.15139 0.832031 0.7483
166 1 0.0659778 0.854407 0.914967
68 1 0.240399 0.891519 0.914967
90 1 0.26002 0.975233 0.7483
17 2 0.325444 0.794824 0.7483
202 1 0.405551 0.895334 0.914967
214 1 0.483257 0.867675 0.7483
198 1 0.609429 0.975289 0.7483
18 2 0.632554 0.795287 0.7483
58 1 0.722651 0.853792 0.914967
204 1 0.572769 0.896216 0.914967
216 1 0.927651 0.970536 0.7483
36 2 0.968222 0.802488 0.7483
133 1 0.802924 0.849577 0.7483
176 1 0.890991 0.891463 0.914967
ITEM: TIMESTEP
400
ITEM: NUMBER OF ATOMS
216
ITEM: BOX BOUNDS pp pp pp
0.0000000000000000e+00 1.5500000000000000e+01
0.0000000000000000e+00 1.5500000000000000e+01
0.0000000000000000e+00 1.2500000000000000e+01
ITEM: ATOMS id type xs ys zs
1 2 0.0173173 0.127914 0.0816333
8 2 0.174976 0.0719277 0.2483
55 1 0.171764 0.19778 0.0816333
70 1 0.089958 0.231147 0.2483
37 2 0.322852 0.141696 0.0816333
98 1 0.418653 0.209237 0.2483
117 1 0.257388 0.234522 0.2483
125 1 0.349029 0.0347206 0.2483
165 1 0.434442 0.0123445 0.0816333
145 1 0.498772 0.169764 0.0816333
27 2 0.532198 0.0642635 0.2483
39 2 0.668381 0.142423 0.0816333
99 1 0.593924 0.225713 0.2483
115 1 0.697495 0.0171742 0.2483
9 2 0.867865 0.071465 0.2483
57 1 0.777769 0.0129594 0.0816333
63 1 0.933395 0.228594 0.2483
67 1 0.84454 0.177485 0.0816333
124 1 0.759805 0.216887 0.2483
21 2 0.147116 0.479661 0.0816333
45 2 0.0143605 0.399429 0.2483
123 1 0.0880904 0.319365 0.0816333
169 1 0.181027 0.370781 0.2483
26 2 0.353303 0.38709 0.2483
149 1 0.42477 0.302522 0.0816333
163 1 0.319392 0.49597 0.0816333
173 1 0.259974 0.332373 0.0816333
41 2 0.486059 0.467323 0.0816333
25 2 0.684445 0.392068 0.2483
97 1 0.516548 0.356492 0.2483
147 1 0.595269 0.318821 0.0816333
19 2 0.815974 0.474684 0.0816333
111 1 0.926324 0.328668 0.0816333
167 1 0.760088 0.307361 0.0816333