ITEM: TIMESTEP
0
ITEM: NUMBER OF ATOMS
172
ITEM: BOX BOUNDS pp pp pp
5.0000000000000000e-01 1.1500000000000000e+01
5.0000000000000000e-01 1.1500000000000000e+01
5.0000000000000000e-01 1.1500000000000000e+01
ITEM: ATOMS id type xs ys zs
57 2 0.285455 0.285455 0.285455
119 1 0.285455 0.12 0.12
127 1 0.12 0.285455 0.12
135 1 0.12 0.12 0.285455
64 2 0.616364 0.285455 0.285455
126 1 0.616364 0.12 0.12
147 1 0.450909 0.285455 0.12
165 1 0.450909 0.12 0.285455
33 2 0.954545 0.285455 0.285455
34 2 0.947273 0.285455 0.285455
65 1 0.954545 0.12 0.12
66 1 0.947273 0.12 0.12
130 1 0.781818 0.285455 0.12
140 1 0.781818 0.12 0.285455
62 2 0.285455 0.616364 0.285455
134 1 0.12 0.616364 0.12
151 1 0.12 0.450909 0.285455
162 1 0.285455 0.450909 0.12
59 2 0.616364 0.616364 0.285455
149 1 0.450909 0.616364 0.12
160 1 0.616364 0.450909 0.12
171 1 0.450909 0.450909 0.285455
37 2 0.954545 0.616364 0.285455
38 2 0.947273 0.616364 0.285455
107 1 0.954545 0.450909 0.12
108 1 0.947273 0.450909 0.12
131 1 0.781818 0.616364 0.12
154 1 0.781818 0.450909 0.285455
41 2 0.285455 0.954545 0.285455
42 2 0.285455 0.947273 0.285455
73 1 0.12 0.954545 0.12
74 1 0.12 0.947273 0.12
124 1 0.285455 0.781818 0.12
138 1 0.12 0.781818 0.285455
47 2 0.616364 0.954545 0.285455
48 2 0.616364 0.947273 0.285455
93 1 0.450909 0.954545 0.12
94 1 0.450909 0.947273 0.12
121 1 0.616364 0.781818 0.12
164 1 0.450909 0.781818 0.285455
9 2 0.954545 0.954545 0.285455
10 2 0.954545 0.947273 0.285455
11 2 0.947273 0.954545 0.285455
12 2 0.947273 0.947273 0.285455
69 1 0.954545 0.781818 0.12
70 1 0.947273 0.781818 0.12
79 1 0.781818 0.954545 0.12
80 1 0.781818 0.947273 0.12
141 1 0.781818 0.781818 0.285455
60 2 0.285455 0.285455 0.616364
142 1 0.12 0.12 0.616364
143 1 0.285455 0.12 0.450909
155 1 0.12 0.285455 0.450909
61 2 0.616364 0.285455 0.616364
145 1 0.616364 0.12 0.450909
163 1 0.450909 0.12 0.616364
169 1 0.450909 0.285455 0.450909
39 2 0.954545 0.285455 0.616364
40 2 0.947273 0.285455 0.616364
89 1 0.954545 0.12 0.450909
90 1 0.947273 0.12 0.450909
137 1 0.781818 0.12 0.616364
158 1 0.781818 0.285455 0.450909
63 2 0.285455 0.616364 0.616364
153 1 0.12 0.450909 0.616364
157 1 0.12 0.616364 0.450909
167 1 0.285455 0.450909 0.450909
58 2 0.616364 0.616364 0.616364
168 1 0.616364 0.450909 0.450909
170 1 0.450909 0.616364 0.450909
172 1 0.450909 0.450909 0.616364
35 2 0.954545 0.616364 0.616364
36 2 0.947273 0.616364 0.616364
113 1 0.954545 0.450909 0.450909
114 1 0.947273 0.450909 0.450909
152 1 0.781818 0.450909 0.616364
156 1 0.781818 0.616364 0.450909
45 2 0.285455 0.954545 0.616364
46 2 0.285455 0.947273 0.616364
101 1 0.12 0.954545 0.450909
102 1 0.12 0.947273 0.450909
139 1 0.12 0.781818 0.616364
146 1 0.285455 0.781818 0.450909
43 2 0.616364 0.954545 0.616364
44 2 0.616364 0.947273 0.616364
115 1 0.450909 0.954545 0.450909
116 1 0.450909 0.947273 0.450909
144 1 0.616364 0.781818 0.450909
166 1 0.450909 0.781818 0.616364
13 2 0.954545 0.954545 0.616364
14 2 0.954545 0.947273 0.616364
15 2 0.947273 0.954545 0.616364
16 2 0.947273 0.947273 0.616364
91 1 0.954545 0.781818 0.450909
92 1 0.947273 0.781818 0.450909
103 1 0.781818 0.954545 0.450909
104 1 0.781818 0.947273 0.450909
136 1 0.781818 0.781818 0.616364
49 2 0.285455 0.285455 0.954545
50 2 0.285455 0.285455 0.947273
81 1 0.12 0.12 0.954545
82 1 0.12 0.12 0.947273
122 1 0.285455 0.12 0.781818
132 1 0.12 0.285455 0.781818
53 2 0.616364 0.285455 0.954545
54 2 0.616364 0.285455 0.947273
109 1 0.450909 0.12 0.954545
110 1 0.450909 0.12 0.947273
123 1 0.616364 0.12 0.781818
150 1 0.450909 0.285455 0.781818
25 2 0.954545 0.285455 0.954545
26 2 0.954545 0.285455 0.947273
27 2 0.947273 0.285455 0.954545
28 2 0.947273 0.285455 0.947273
71 1 0.954545 0.12 0.781818
72 1 0.947273 0.12 0.781818
85 1 0.781818 0.12 0.954545
86 1 0.781818 0.12 0.947273
133 1 0.781818 0.285455 0.781818
55 2 0.285455 0.616364 0.954545
56 2 0.285455 0.616364 0.947273
97 1 0.12 0.450909 0.954545
98 1 0.12 0.450909 0.947273
129 1 0.12 0.616364 0.781818
159 1 0.285455 0.450909 0.781818
51 2 0.616364 0.616364 0.954545
52 2 0.616364 0.616364 0.947273
117 1 0.450909 0.450909 0.954545
118 1 0.450909 0.450909 0.947273
148 1 0.450909 0.616364 0.781818
161 1 0.616364 0.450909 0.781818
29 2 0.954545 0.616364 0.954545
30 2 0.954545 0.616364 0.947273
31 2 0.947273 0.616364 0.954545
32 2 0.947273 0.616364 0.947273
99 1 0.781818 0.450909 0.954545
100 1 0.781818 0.450909 0.947273
105 1 0.954545 0.450909 0.781818
106 1 0.947273 0.450909 0.781818
128 1 0.781818 0.616364 0.781818
17 2 0.285455 0.954545 0.954545
18 2 0.285455 0.954545 0.947273
19 2 0.285455 0.947273 0.954545
20 2 0.285455 0.947273 0.947273
77 1 0.12 0.954545 0.781818
78 1 0.12 0.947273 0.781818
87 1 0.12 0.781818 0.954545
88 1 0.12 0.781818 0.947273
125 1 0.285455 0.781818 0.781818
21 2 0.616364 0.954545 0.954545
22 2 0.616364 0.954545 0.947273
23 2 0.616364 0.947273 0.954545
24 2 0.616364 0.947273 0.947273
95 1 0.450909 0.954545 0.781818
96 1 0.450909 0.947273 0.781818
111 1 0.450909 0.781818 0.954545
112 1 0.450909 0.781818 0.947273
120 1 0.616364 0.781818 0.781818
1 2 0.954545 0.954545 0.954545
2 2 0.954545 0.954545 0.947273
3 2 0.954545 0.947273 0.954545
4 2 0.954545 0.947273 0.947273
5 2 0.947273 0.954545 0.954545
6 2 0.947273 0.954545 0.947273
7 2 0.947273 0.947273 0.954545
8 2 0.947273 0.947273 0.947273
67 1 0.954545 0.781818 0.781818
68 1 0.947273 0.781818 0.781818
75 1 0.781818 0.954545 0.781818
76 1 0.781818 0.947273 0.781818
83 1 0.781818 0.781818 0.954545
84 1 0.781818 0.781818 0.947273
ITEM: TIMESTEP
100
ITEM: NUMBER OF ATOMS
172
ITEM: BOX BOUNDS pp pp pp
5.0000000000000000e-01 1.1500000000000000e+01
5.0000000000000000e-01 1.1500000000000000e+01
5.0000000000000000e-01 1.1500000000000000e+01
ITEM: ATOMS id type xs ys zs
57 2 0.295236 0.301123 0.339709
119 1 0.357326 0.135631 0.175911
127 1 0.18544 0.404277 0.228612
135 1 0.16941 0.172536 0.27421
64 2 0.581913 0.318392 0.308557
126 1 0.571033 0.209593 0.133204
147 1 0.426822 0.303271 0.185955
165 1 0.434265 0.181578 0.338557
33 2 0.0529252 0.316849 0.32755
34 2 0.855375 0.334165 0.269895
65 1 0.977388 0.175811 0.229422
66 1 0.824162 0.191947 0.128426
130 1 0.705324 0.331706 0.147875
140 1 0.698148 0.184623 0.265618
62 2 0.328173 0.592378 0.300836
134 1 0.207099 0.573253 0.146874
151 1 0.184204 0.500789 0.371521
162 1 0.336792 0.441962 0.148615
59 2 0.598447 0.59647 0.349279
149 1 0.461619 0.574961 0.154584
160 1 0.561019 0.439888 0.153998
171 1 0.448734 0.45189 0.302615
37 2 0.045406 0.563772 0.267076
38 2 0.840783 0.587864 0.313069
107 1 0.0264985 0.421698 0.139415
108 1 0.865821 0.480196 0.143637
131 1 0.704176 0.496814 0.23295
154 1 0.734323 0.402227 0.380978
41 2 0.300463 0.0425803 0.333491
42 2 0.345245 0.852096 0.259932
73 1 0.140606 0.998016 0.238733
74 1 0.205265 0.84282 0.125674
124 1 0.332162 0.695672 0.135588
138 1 0.196614 0.714516 0.276735
47 2 0.531917 0.0542717 0.241221
48 2 0.589245 0.860769 0.32566
93 1 0.419529 -0.00539881 0.0842705
94 1 0.495128 0.861947 0.156054
121 1 0.523596 0.708637 0.229153
164 1 0.425808 0.731555 0.368796
9 2 0.0452102 0.0534988 0.380082
10 2 0.0663919 0.843228 0.266909
11 2 0.832286 0.0649252 0.278103
12 2 0.855147 0.841982 0.381964
69 1 0.0689282 0.706515 0.132772
70 1 0.916703 0.739368 0.235461
79 1 0.689834 0.0565997 0.126671
80 1 0.745608 0.916957 0.240849
141 1 0.72827 0.737407 0.282016
60 2 0.314337 0.314228 0.598523
142 1 0.197754 0.179866 0.646367
143 1 0.314937 0.137006 0.507381
155 1 0.166301 0.217649 0.459823
61 2 0.622217 0.295892 0.561217
145 1 0.593042 0.160146 0.42216
163 1 0.472396 0.182418 0.56655
169 1 0.450601 0.318308 0.458254
39 2 0.0605578 0.341003 0.648355
40 2 0.864097 0.329893 0.541705
89 1 0.00570332 0.236731 0.515033
90 1 0.91069 0.163338 0.400385
137 1 0.744033 0.169348 0.641636
158 1 0.753507 0.225072 0.437809
63 2 0.304575 0.580604 0.560732
153 1 0.170445 0.393983 0.514038
157 1 0.15928 0.652718 0.437784
167 1 0.326398 0.441588 0.444396
58 2 0.569452 0.590331 0.607791
168 1 0.580205 0.441906 0.459028
170 1 0.452774 0.567914 0.451761
172 1 0.456833 0.441891 0.603276
35 2 0.0539556 0.579383 0.570891
36 2 0.842654 0.55828 0.652436
113 1 0.0281713 0.45376 0.438482
114 1 0.87323 0.482067 0.453408
152 1 0.720379 0.504761 0.531298
156 1 0.732431 0.663287 0.458636
45 2 0.382652 0.0565059 0.684751
46 2 0.314455 0.915186 0.561683
101 1 0.181439 0.0244474 0.483096
102 1 0.200947 0.874816 0.391862
139 1 0.174513 0.732308 0.614732
146 1 0.289969 0.754624 0.467634
43 2 0.601016 0.0233441 0.564627
44 2 0.548322 0.843983 0.657016
115 1 0.45707 0.0386208 0.44266
116 1 0.459937 0.878842 0.45468
144 1 0.619665 0.782759 0.489453
166 1 0.460827 0.724067 0.539575
13 2 0.0742328 0.0576538 0.616907
14 2 0.0607246 0.843776 0.512361
15 2 0.852113 0.0464992 0.516756
16 2 0.84421 0.825188 0.617891
91 1 0.00747191 0.7221 0.39496
92 1 0.896553 0.664107 0.504728
103 1 0.682265 0.0208546 0.385389
104 1 0.737951 0.898315 0.493992
136 1 0.702851 0.711964 0.635476
49 2 0.218862 0.253015 0.11676
50 2 0.330413 0.344435 0.923474
81 1 0.115844 0.139464 0.0427538
82 1 0.187319 0.211835 0.908732
122 1 0.330229 0.210395 0.772762
132 1 0.207534 0.331887 0.766332
53 2 0.567254 0.335348 0.986186
54 2 0.660932 0.256147 0.802218
109 1 0.409464 0.219455 0.0347546
110 1 0.483789 0.198632 0.863228
123 1 0.55519 0.124743 0.709862
150 1 0.4802 0.298549 0.716198
25 2 0.992288 0.257238 0.0609919
26 2 0.0679035 0.3623 0.90141
27 2 0.826686 0.351167 -0.00328494
28 2 0.898991 0.250791 0.817744
71 1 0.067618 0.199164 0.77091
72 1 0.931142 0.153199 0.64877
85 1 0.706643 0.203848 0.98929
86 1 0.78019 0.13334 0.836925
133 1 0.748103 0.370195 0.670327
55 2 0.329776 0.582365 0.970483
56 2 0.222049 0.662011 0.775184
97 1 0.194915 0.416645 0.0374102
98 1 0.20392 0.501348 0.861987
129 1 0.181293 0.499874 0.672651
159 1 0.335581 0.45039 0.740086
51 2 0.667354 0.657693 0.126008
52 2 0.566903 0.571363 0.923872
117 1 0.443327 0.463954 0.0144551
118 1 0.473527 0.439172 0.835373
148 1 0.411563 0.599683 0.734164
161 1 0.601541 0.441168 0.725248
29 2 0.0742321 0.559547 0.00640439
30 2 0.00162463 0.651146 0.835209
31 2 0.896325 0.651294 0.073602
32 2 0.828655 0.563744 0.907155
99 1 0.698812 0.494672 0.0422295
100 1 0.721045 0.423674 0.863097
105 1 0.0299697 0.489388 0.762103
106 1 0.878527 0.421685 0.766562
128 1 0.694199 0.58045 0.767789
17 2 0.233052 0.0140492 0.0884486
18 2 0.323984 0.0896991 0.924967
19 2 0.353778 0.833614 0.00540195
20 2 0.247712 0.890756 0.836775
77 1 0.209573 0.0557268 0.776402
78 1 0.165259 0.908786 0.665919
87 1 0.197933 0.707748 0.999832
88 1 0.12629 0.768559 0.860822
125 1 0.345264 0.756138 0.661276
21 2 0.560538 0.0812829 0.992272
22 2 0.66056 0.0125537 0.812808
23 2 0.650045 0.890226 0.0767266
24 2 0.561679 0.827225 0.90665
95 1 0.477845 -0.00255716 0.849931
96 1 0.407311 0.867142 0.766477
111 1 0.497997 0.709417 0.0396595
112 1 0.402091 0.718347 0.862241
120 1 0.557762 0.689053 0.773418
1 2 0.0103129 0.0339112 0.133369
2 2 0.056912 0.0563078 0.898362
3 2 0.0537074 0.84802 -0.000116219
4 2 0.0293463 0.869521 0.761247
5 2 0.833853 0.0561951 0.992154
6 2 0.888638 0.0212958 0.759109
7 2 0.873275 0.875378 0.136189
8 2 0.83903 0.846692 0.900963
67 1 0.991793 0.735536 0.65855
68 1 0.835346 0.709619 0.770737
75 1 0.753807 0.977841 0.661197
76 1 0.694308 0.842188 0.771705
83 1 0.769788 0.768366 0.0492266
84 1 0.703883 0.704355 0.907782
ITEM: TIMESTEP
200
ITEM: NUMBER OF ATOMS
172
ITEM: BOX BOUNDS pp pp pp
5.0000000000000000e-01 1.1500000000000000e+01
5.0000000000000000e-01 1.1500000000000000e+01
5.0000000000000000e-01 1.1500000000000000e+01
ITEM: ATOMS id type xs ys zs
57 2 0.270651 0.261406 0.39561
119 1 0.339265 0.0329409 0.162357
127 1 0.18693 0.376921 0.269607
135 1 0.119486 0.184878 0.285611
64 2 0.557526 0.375479 0.299113
126 1 0.57247 0.179842 0.16122
147 1 0.474696 0.31067 0.119654
165 1 0.393495 0.19288 0.239388
33 2 0.0317874 0.340502 0.382379
34 2 0.8108 0.353435 0.272815
65 1 0.9563 0.239016 0.238823
66 1 0.857284 0.196022 0.0613078
130 1 0.709309 0.304203 0.11829
140 1 0.672228 0.235601 0.271403
62 2 0.365311 0.552856 0.332282
134 1 0.235444 0.522554 0.190648
151 1 0.206455 0.492685 0.415581
162 1 0.324977 0.414886 0.0989113
59 2 0.597624 0.621427 0.381269
149 1 0.46801 0.530706 0.170082
160 1 0.603167 0.433385 0.124743
171 1 0.373278 0.375032 0.261479
37 2 0.0802383 0.573713 0.288546
38 2 0.833964 0.611735 0.308881
107 1 0.948647 0.469153 0.276593
108 1 0.819951 0.503767 0.154216
131 1 0.674722 0.523922 0.254075
154 1 0.715437 0.429089 0.404269
41 2 0.232812 0.037411 0.312054
42 2 0.353618 0.849264 0.217908
73 1 0.0736526 0.995572 0.215647
74 1 0.220269 0.787567 0.105419
124 1 0.338536 0.650044 0.12765
138 1 0.237267 0.694829 0.265071
47 2 0.511925 0.0382161 0.25104
48 2 0.584621 0.824578 0.331591
93 1 0.413328 0.958742 0.0308556
94 1 0.515901 0.870296 0.14691
121 1 0.481374 0.695454 0.234269
164 1 0.367999 0.749497 0.379809
9 2 0.991982 0.0384601 0.360059
10 2 0.103058 0.831275 0.272002
11 2 0.791298 0.110334 0.228383
12 2 0.87504 0.849901 0.387785
69 1 0.0642972 0.694652 0.139676
70 1 0.930431 0.752325 0.231549
79 1 0.695571 0.0831678 0.0730654
80 1 0.794442 0.940728 0.256369
141 1 0.743258 0.772283 0.243466
60 2 0.353691 0.292241 0.632136
142 1 0.187057 0.201253 0.642323
143 1 0.273014 0.079834 0.556639
155 1 0.12715 0.186549 0.475606
61 2 0.581993 0.289492 0.536106
145 1 0.59943 0.135796 0.380735
163 1 0.439497 0.157826 0.548776
169 1 0.471209 0.242132 0.393815
39 2 0.0389878 0.339015 0.647883
40 2 0.828218 0.343499 0.523931
89 1 0.962924 0.231886 0.50559
90 1 0.882204 0.169168 0.375871
137 1 0.715355 0.169498 0.600346
158 1 0.724451 0.234777 0.431647
63 2 0.32965 0.530241 0.569803
153 1 0.199839 0.367596 0.545175
157 1 0.17433 0.669681 0.429453
167 1 0.383928 0.396111 0.454379
58 2 0.559957 0.61197 0.648774
168 1 0.541928 0.464045 0.469701
170 1 0.451989 0.636627 0.485419
172 1 0.490991 0.441019 0.632639
35 2 0.0915221 0.610468 0.584337
36 2 0.875693 0.531691 0.662927
113 1 0.0521887 0.468034 0.493353
114 1 0.89131 0.506133 0.455041
152 1 0.714309 0.548244 0.525563
156 1 0.756152 0.705113 0.443306
45 2 0.404604 0.0609316 0.708714
46 2 0.321506 0.900976 0.559329
101 1 0.133419 0.0127584 0.467012
102 1 0.220595 0.854247 0.407165
139 1 0.169089 0.766811 0.646558
146 1 0.287869 0.715174 0.537301
43 2 0.543222 0.00981658 0.501949
44 2 0.572072 0.859231 0.68821
115 1 0.362639 0.101391 0.406
116 1 0.406445 0.936092 0.384457
144 1 0.628779 0.760749 0.548091
166 1 0.486375 0.818528 0.49736
13 2 0.0270973 0.0758732 0.608313
14 2 0.0567752 0.852627 0.515428
15 2 0.801151 0.0565352 0.48661
16 2 0.825598 0.85072 0.625463
91 1 0.00754498 0.717594 0.395518
92 1 0.910777 0.66062 0.524071
103 1 0.669684 0.983098 0.351815
104 1 0.729 0.887164 0.482939
136 1 0.752947 0.682563 0.637313
49 2 0.231439 0.233664 0.138265
50 2 0.326788 0.330376 0.923402
81 1 0.15279 0.120547 0.0133709
82 1 0.108254 0.25347 0.933776
122 1 0.31394 0.195241 0.787345
132 1 0.184335 0.321297 0.78328
53 2 0.569266 0.318796 0.948212
54 2 0.706795 0.267931 0.750901
109 1 0.382962 0.190229 0.048612
110 1 0.46792 0.200318 0.871741
123 1 0.568472 0.113706 0.672526
150 1 0.522077 0.270698 0.727935
25 2 0.031367 0.375395 0.142529
26 2 0.0376936 0.42565 0.884053
27 2 0.861117 0.379793 0.0344455
28 2 0.91815 0.227343 0.868357
71 1 0.0586342 0.178676 0.771442
72 1 0.884375 0.175216 0.650851
85 1 0.708671 0.218443 0.975659
86 1 0.771308 0.13721 0.854574
133 1 0.862778 0.356107 0.702342
55 2 0.356906 0.571875 0.964873
56 2 0.264846 0.656032 0.758654
97 1 0.163783 0.384337 0.030335
98 1 0.216488 0.491735 0.872382
129 1 0.209826 0.491206 0.692046
159 1 0.359614 0.431983 0.763618
51 2 0.643664 0.65985 0.138235
52 2 0.582311 0.584263 0.910338
117 1 0.47397 0.455375 1.00557
118 1 0.538414 0.429245 0.798149
148 1 0.434123 0.58381 0.798997
161 1 0.680239 0.420022 0.63882
29 2 0.13465 0.565505 0.0486728
30 2 0.0282104 0.64966 0.822562
31 2 0.917764 0.62225 0.0752326
32 2 0.83149 0.573489 0.89462
99 1 0.705891 0.511118 0.0264296
100 1 0.709231 0.397146 0.874811
105 1 0.0470218 0.506687 0.727084
106 1 0.873219 0.396728 0.866377
128 1 0.700246 0.533538 0.761559
17 2 0.183806 0.970552 0.0889428
18 2 0.297466 0.0846004 0.930095
19 2 0.33582 0.812732 0.968791
20 2 0.251011 0.896909 0.805437
77 1 0.19829 0.0671873 0.769417
78 1 0.152382 0.953236 0.649846
87 1 0.212947 0.675668 0.938778
88 1 0.134437 0.775241 0.825741
125 1 0.409462 0.725167 0.657683
21 2 0.528594 0.0855167 0.0149723
22 2 0.619283 0.0596646 0.83551
23 2 0.684167 0.916588 0.11507
24 2 0.598907 0.837863 0.945569
95 1 0.468694 0.943534 0.869276
96 1 0.401125 0.883795 0.725037
111 1 0.484137 0.71466 0.0429246
112 1 0.46403 0.747078 0.834032
120 1 0.670116 0.720421 0.787879
1 2 0.0131853 0.136988 0.106935
2 2 0.0595608 0.0353214 0.896214
3 2 0.0648373 0.814342 0.990109
4 2 0.0133524 0.889029 0.75989
5 2 0.836953 0.0232325 0.972543
6 2 0.838101 0.0354299 0.738896
7 2 0.931822 0.922168 0.139872
8 2 0.855112 0.821792 0.90417
67 1 0.97209 0.75806 0.650905
68 1 0.866126 0.691391 0.772858
75 1 0.678666 0.989889 0.628539
76 1 0.717836 0.896988 0.805789
83 1 0.818664 0.778627 0.0812291
84 1 0.718059 0.699997 0.96983
ITEM: TIMESTEP
300
ITEM: NUMBER OF ATOMS
172
ITEM: BOX BOUNDS pp pp pp
5.0000000000000000e-01 1.1500000000000000e+01
5.0000000000000000e-01 1.1500000000000000e+01
5.0000000000000000e-01 1.1500000000000000e+01
ITEM: ATOMS id type xs ys zs
57 2 0.279191 0.268569 0.386292
119 1 0.342904 0.0319833 0.16024
127 1 0.179392 0.377501 0.268142
135 1 0.121258 0.190432 0.278911
64 2 0.542906 0.377836 0.307955
126 1 0.569518 0.174088 0.150207
147 1 0.472471 0.306638 0.115531
165 1 0.391839 0.196703 0.23703
33 2 0.0292537 0.339053 0.382374
34 2 0.803151 0.357345 0.279192
65 1 0.946064 0.243591 0.237242
66 1 0.873421 0.201924 0.0521383
130 1 0.701382 0.306598 0.129945
140 1 0.653728 0.228395 0.27752
62 2 0.361156 0.554579 0.328921
134 1 0.233263 0.513294 0.18074
151 1 0.201782 0.49362 0.407716
162 1 0.329423 0.408982 0.0731235
59 2 0.583994 0.62082 0.396622
149 1 0.457784 0.534293 0.162425
160 1 0.595977 0.432815 0.142336
171 1 0.368292 0.384148 0.24587
37 2 0.0755171 0.577853 0.286931
38 2 0.817594 0.615597 0.314392
107 1 0.941491 0.474752 0.273988
108 1 0.80535 0.503948 0.159658
131 1 0.662612 0.530559 0.266063
154 1 0.706963 0.43196 0.407062
41 2 0.238734 0.0412727 0.310707
42 2 0.349626 0.851434 0.215667
73 1 0.0765456 0.999906 0.215239
74 1 0.200387 0.797275 0.116829
124 1 0.323345 0.652209 0.114607
138 1 0.238714 0.691183 0.262472
47 2 0.516072 0.0392398 0.255511
48 2 0.573879 0.815291 0.330999
93 1 0.390821 0.943379 0.016444
94 1 0.504063 0.863264 0.12325
121 1 0.471087 0.699101 0.223953
164 1 0.365954 0.760123 0.378408
9 2 1.00119 0.0511204 0.357766
10 2 0.102001 0.836998 0.274561
11 2 0.787526 0.125571 0.204419
12 2 0.866698 0.842806 0.379539
69 1 0.0518422 0.694857 0.143776
70 1 0.923059 0.7495 0.235705
79 1 0.688223 0.0716101 0.06111
80 1 0.837701 0.993335 0.30796
141 1 0.737041 0.773746 0.245723
60 2 0.355499 0.283887 0.622445
142 1 0.178817 0.208191 0.63966
143 1 0.271468 0.0899283 0.555699
155 1 0.130585 0.195855 0.469844
61 2 0.58842 0.26966 0.53618
145 1 0.652779 0.099745 0.392845
163 1 0.445879 0.147648 0.546354
169 1 0.502074 0.209019 0.379438
39 2 0.0396881 0.351819 0.652539
40 2 0.827287 0.354077 0.53104
89 1 0.959316 0.2378 0.514048
90 1 0.877142 0.17519 0.385813
137 1 0.752016 0.177091 0.601705
158 1 0.730805 0.24516 0.428086
63 2 0.326553 0.515893 0.55989
153 1 0.199635 0.36527 0.538842
157 1 0.176722 0.671327 0.42597
167 1 0.403694 0.384772 0.449098
58 2 0.539988 0.602904 0.655122
168 1 0.553545 0.457035 0.487837
170 1 0.43006 0.635195 0.485401
172 1 0.487653 0.429332 0.640026
35 2 0.10486 0.612858 0.584474
36 2 0.879243 0.555468 0.655772
113 1 0.0517568 0.470522 0.491923
114 1 0.893783 0.506714 0.446795
152 1 0.727415 0.556132 0.523136
156 1 0.78328 0.7103 0.475617
45 2 0.425446 0.062741 0.706707
46 2 0.324103 0.917086 0.54659
101 1 0.135966 0.017859 0.464836
102 1 0.215203 0.855955 0.410961
139 1 0.175523 0.773674 0.665837
146 1 0.281698 0.730131 0.53783
43 2 0.556749 0.00557848 0.503788
44 2 0.581585 0.85365 0.691826
115 1 0.364154 0.10646 0.407008
116 1 0.42087 0.941813 0.381938
144 1 0.627096 0.739291 0.544928
166 1 0.487299 0.819309 0.506822
13 2 0.0238952 0.0834319 0.60195
14 2 0.0464101 0.857649 0.513498
15 2 0.807918 0.0403563 0.494895
16 2 0.82411 0.823031 0.625424
91 1 0.014108 0.725285 0.392329
92 1 0.937501 0.652364 0.51713
103 1 0.678126 0.961556 0.298849
104 1 0.700883 0.877984 0.4677
136 1 0.717675 0.655602 0.666976
49 2 0.2336 0.242223 0.132404
50 2 0.332783 0.31916 0.912585
81 1 0.156307 0.121353 0.00891425
82 1 0.117938 0.261825 0.93662
122 1 0.315666 0.189602 0.777598
132 1 0.18397 0.317627 0.779457
53 2 0.571312 0.29666 0.955555
54 2 0.709974 0.274032 0.753323
109 1 0.378267 0.181023 0.0443251
110 1 0.471228 0.187139 0.868982
123 1 0.600393 0.102611 0.666511
150 1 0.527654 0.264239 0.72609
25 2 0.027719 0.382976 0.14287
26 2 0.0320713 0.434904 0.893707
27 2 0.852552 0.382446 0.0410175
28 2 0.928125 0.232297 0.874296
71 1 0.0694727 0.172998 0.782597
72 1 0.908464 0.204853 0.684291
85 1 0.721043 0.218727 0.989952
86 1 0.774508 0.143503 0.859282
133 1 0.855928 0.384901 0.707282
55 2 0.35323 0.55825 0.960517
56 2 0.279148 0.651902 0.748133
97 1 0.159203 0.40483 0.0327644
98 1 0.214144 0.471474 0.864886
129 1 0.210273 0.497968 0.68841
159 1 0.355343 0.426763 0.757263
51 2 0.634272 0.660021 0.142769
52 2 0.582692 0.593034 0.905902
117 1 0.494122 0.454392 0.00400244
118 1 0.528095 0.419036 0.813034
148 1 0.436533 0.575836 0.804462
161 1 0.671857 0.421738 0.630791
29 2 0.129224 0.586335 0.0465077
30 2 0.0332177 0.660353 0.822592
31 2 0.90592 0.619113 0.0809144
32 2 0.831275 0.572702 0.891662
99 1 0.692206 0.50966 0.0294975
100 1 0.703724 0.391857 0.886273
105 1 0.0464077 0.511823 0.73455
106 1 0.869726 0.399823 0.872316
128 1 0.691756 0.51602 0.767897
17 2 0.187626 0.974627 0.0879882
18 2 0.292049 0.0797703 0.917959
19 2 0.301776 0.793375 0.968704
20 2 0.261553 0.900226 0.781113
77 1 0.200779 0.0662322 0.753658
78 1 0.144629 0.953696 0.639084
87 1 0.201719 0.643766 0.901866
88 1 0.135259 0.803395 0.85891
125 1 0.411816 0.734436 0.647088
21 2 0.513461 0.0652776 0.0158641
22 2 0.625147 0.0605548 0.842622
23 2 0.684816 0.911756 0.123878
24 2 0.599946 0.835713 0.947637
95 1 0.465947 0.929957 0.865761
96 1 0.409354 0.888848 0.708639
111 1 0.474781 0.70783 0.0296259
112 1 0.451409 0.748176 0.833441
120 1 0.670602 0.729533 0.803791
1 2 0.0214179 0.139675 0.108876
2 2 0.0598413 0.0302619 0.900164
3 2 0.0432238 0.814098 1.00803
4 2 0.00874751 0.899801 0.757362
5 2 0.842215 0.0242117 0.976018
6 2 0.841312 0.0427668 0.737748
7 2 0.925422 0.930356 0.152821
8 2 0.854627 0.823502 0.904993
67 1 0.991754 0.757328 0.6562
68 1 0.860341 0.696713 0.775009
75 1 0.709275 0.966411 0.634438
76 1 0.721063 0.907115 0.814301
83 1 0.820923 0.790537 0.0892712
84 1 0.723716 0.697698 0.984079
ITEM: TIMESTEP
400
ITEM: NUMBER OF ATOMS
172
ITEM: BOX BOUNDS pp pp pp
5.0000000000000000e-01 1.1500000000000000e+01
5.0000000000000000e-01 1.1500000000000000e+01
5.0000000000000000e-01 1.1500000000000000e+01
ITEM: ATOMS id type xs ys zs
57 2 0.281681 0.259744 0.385697
119 1 0.342158 0.0322391 0.158987
127 1 0.17885 0.370016 0.269014
135 1 0.120161 0.186967 0.276976
64 2 0.536383 0.371334 0.309883
126 1 0.569256 0.174028 0.149108
147 1 0.472217 0.307287 0.112314
165 1 0.393364 0.194775 0.232999
33 2 0.0277127 0.334709 0.384187
34 2 0.800656 0.354263 0.283408
65 1 0.945974 0.241389 0.23576
66 1 0.870622 0.199602 0.0509529
130 1 0.699023 0.305073 0.129494
140 1 0.654969 0.225714 0.277991
62 2 0.366538 0.563434 0.326532
134 1 0.234769 0.507646 0.183531
151 1 0.210248 0.488974 0.40273
162 1 0.334885 0.410438 0.0690358
59 2 0.585649 0.618017 0.40164
149 1 0.458561 0.535005 0.164602
160 1 0.595438 0.42997 0.150173
171 1 0.364581 0.383995 0.243712
37 2 0.0766358 0.571678 0.29197
38 2 0.815967 0.609144 0.320041
107 1 0.940395 0.470728 0.274692
108 1 0.800545 0.498085 0.162747
131 1 0.660599 0.530331 0.268123
154 1 0.696547 0.428555 0.407196
41 2 0.237663 0.0374887 0.30994
42 2 0.34861 0.851316 0.214733
73 1 0.0754943 0.998662 0.213777
74 1 0.201294 0.799084 0.116499
124 1 0.320885 0.65037 0.111835
138 1 0.235884 0.689197 0.258906
47 2 0.517955 0.0358384 0.252087
48 2 0.570913 0.810459 0.330709
93 1 0.390935 0.945827 0.0156514
94 1 0.503114 0.865147 0.119102
121 1 0.471776 0.704211 0.213773
164 1 0.362004 0.7639 0.376981
9 2 0.999375 0.0503809 0.356726
10 2 0.100059 0.834826 0.274646
11 2 0.787122 0.123785 0.204899
12 2 0.863422 0.838612 0.378993
69 1 0.0556029 0.68887 0.150644
70 1 0.920385 0.740041 0.238836
79 1 0.687596 0.0698047 0.0618726
80 1 0.836016 0.989898 0.30739
141 1 0.735613 0.768842 0.246787
60 2 0.357243 0.287494 0.623445
142 1 0.177161 0.213659 0.638532
143 1 0.269292 0.0920557 0.553531
155 1 0.12852 0.195039 0.468818
61 2 0.58532 0.267357 0.534472
145 1 0.655535 0.0976457 0.392473
163 1 0.441218 0.148653 0.543769
169 1 0.503426 0.201281 0.375881
39 2 0.0402218 0.356626 0.650603
40 2 0.821932 0.362351 0.534461
89 1 0.951622 0.238779 0.516081
90 1 0.875102 0.174418 0.385871
137 1 0.759662 0.177313 0.60047
158 1 0.730664 0.244234 0.432875
63 2 0.327773 0.521954 0.560009
153 1 0.205607 0.363873 0.536347
157 1 0.178946 0.670666 0.424463
167 1 0.389024 0.394972 0.439598
58 2 0.541482 0.604444 0.653693
168 1 0.543959 0.449954 0.48747
170 1 0.431261 0.64258 0.485234
172 1 0.475376 0.437123 0.638993
35 2 0.10415 0.61047 0.581344
36 2 0.883389 0.556234 0.66275
113 1 0.0627197 0.46535 0.490009
114 1 0.906411 0.507851 0.450769
152 1 0.734285 0.547959 0.52644
156 1 0.782295 0.705726 0.479443
45 2 0.424942 0.0645682 0.705059
46 2 0.32357 0.919391 0.543515
101 1 0.134045 0.0162289 0.463396
102 1 0.210401 0.855115 0.412457
139 1 0.170465 0.770536 0.66408
146 1 0.279773 0.732751 0.538721
43 2 0.557297 0.00593956 0.503191
44 2 0.579733 0.855183 0.692591
115 1 0.364057 0.101796 0.403438
116 1 0.423448 0.941191 0.380737
144 1 0.626687 0.739408 0.546449
166 1 0.487472 0.820433 0.507297
13 2 0.0248463 0.0865201 0.599424
14 2 0.0409661 0.857621 0.512117
15 2 0.807969 0.0369997 0.494575
16 2 0.820655 0.822121 0.626994
91 1 0.0125661 0.72175 0.39371
92 1 0.937693 0.654421 0.523804
103 1 0.676506 0.957242 0.299424
104 1 0.700255 0.875729 0.467951
136 1 0.717152 0.652719 0.667457
49 2 0.23436 0.23949 0.131679
50 2 0.329544 0.318215 0.911319
81 1 0.156722 0.119275 0.00592415
82 1 0.118813 0.261901 0.936403
122 1 0.314061 0.191119 0.775861
132 1 0.181125 0.320702 0.779114
53 2 0.567114 0.301552 0.951971
54 2 0.713241 0.275984 0.75168
109 1 0.378063 0.181527 0.0397757
110 1 0.470528 0.1909 0.863402
123 1 0.600097 0.109154 0.66375
150 1 0.529411 0.272777 0.723858
25 2 0.0301576 0.380193 0.14405
26 2 0.034342 0.437024 0.896565
27 2 0.853198 0.378911 0.0444846
28 2 0.932373 0.232276 0.876085
71 1 0.0741603 0.167251 0.783383
72 1 0.915608 0.208917 0.688301
85 1 0.71648 0.218957 0.988974
86 1 0.774849 0.14598 0.859445
133 1 0.859882 0.384317 0.71044
55 2 0.358476 0.558122 0.958103
56 2 0.277841 0.654071 0.748113
97 1 0.16294 0.40302 0.0345293
98 1 0.214325 0.478407 0.864732
129 1 0.213316 0.497405 0.687117
159 1 0.357328 0.429577 0.764292
51 2 0.635076 0.657486 0.14204
52 2 0.589291 0.595724 0.899646
117 1 0.503771 0.46303 0.00766964
118 1 0.533315 0.425541 0.810815
148 1 0.439291 0.582011 0.802415
161 1 0.655651 0.424022 0.634543
29 2 0.132838 0.584999 0.0477643
30 2 0.0408826 0.670131 0.822753
31 2 0.907485 0.611411 0.0901616
32 2 0.839046 0.576063 0.899703
99 1 0.691069 0.507997 0.0294701
100 1 0.707418 0.391177 0.888792
105 1 0.0510873 0.515834 0.737408
106 1 0.87276 0.400917 0.875965
128 1 0.709367 0.513117 0.769679
17 2 0.186879 0.973852 0.0866191
18 2 0.292217 0.0774586 0.913675
19 2 0.305809 0.794561 0.968911
20 2 0.25498 0.894312 0.774741
77 1 0.206614 0.0659489 0.743381
78 1 0.140821 0.951091 0.636223
87 1 0.202845 0.652561 0.902825
88 1 0.131585 0.830743 0.882411
125 1 0.4109 0.73553 0.647208
21 2 0.513687 0.0672289 0.0128645
22 2 0.624328 0.0648512 0.840428
23 2 0.685532 0.907576 0.124022
24 2 0.599999 0.83786 0.946048
95 1 0.463078 0.932788 0.863221
96 1 0.406609 0.889858 0.705634
111 1 0.476216 0.706122 0.0250423
112 1 0.452382 0.751801 0.832613
120 1 0.675995 0.733171 0.802667
1 2 0.0206217 0.138655 0.105543
2 2 0.0615465 0.0257864 0.899067
3 2 0.0348276 0.804793 0.02107
4 2 1.003 0.904862 0.752411
5 2 0.84151 0.0244 0.975016
6 2 0.840296 0.047483 0.736011
7 2 0.923775 0.930724 0.154511
8 2 0.854973 0.826105 0.90558
67 1 0.98964 0.760825 0.659357
68 1 0.862173 0.698693 0.778668
75 1 0.706668 0.967864 0.634431
76 1 0.720449 0.911779 0.814305
83 1 0.824024 0.787719 0.092218
84 1 0.725487 0.699457 0.984971
ITEM: TIMESTEP
500
ITEM: NUMBER OF ATOMS
172
ITEM: BOX BOUNDS pp pp pp
5.0000000000000000e-01 1.1500000000000000e+01
5.0000000000000000e-01 1.1500000000000000e+01
5.0000000000000000e-01 1.1500000000000000e+01
ITEM: ATOMS id type xs ys zs
57 2 0.281678 0.259744 0.385699
119 1 0.342159 0.0322379 0.158986
127 1 0.17885 0.370019 0.269015
135 1 0.120162 0.186968 0.276976
64 2 0.536385 0.371335 0.309882
126 1 0.569257 0.174029 0.149109
147 1 0.472218 0.307286 0.112313
165 1 0.393363 0.194774 0.233001
33 2 0.0277124 0.334709 0.384187
34 2 0.800656 0.354264 0.283408
65 1 0.945975 0.24139 0.235759
66 1 0.870623 0.199603 0.0509528
130 1 0.699023 0.305073 0.129494
140 1 0.65497 0.225715 0.277992
62 2 0.366532 0.563427 0.326533
134 1 0.23477 0.507646 0.183526
151 1 0.210245 0.488973 0.402735
162 1 0.334887 0.410438 0.0690351
59 2 0.585646 0.618018 0.401636
149 1 0.45856 0.535003 0.164603
160 1 0.595438 0.42997 0.150171
171 1 0.364581 0.383991 0.243712
37 2 0.0766381 0.571677 0.291969
38 2 0.815967 0.609146 0.32004
107 1 0.940396 0.470729 0.274692
108 1 0.800546 0.498086 0.162747
131 1 0.6606 0.530331 0.268121
154 1 0.696548 0.428556 0.407196
41 2 0.237664 0.0374884 0.30994
42 2 0.348612 0.851316 0.214733
73 1 0.0754953 0.998661 0.213777