ITEM: TIMESTEP
0
ITEM: NUMBER OF ATOMS
1500
ITEM: BOX BOUNDS pp pp pp
2.5646629999999999e+00 2.7064662999999999e+01
2.5646629999999999e+00 2.7064662999999999e+01
1.8537500000000000e+00 2.1753750000000000e+01
ITEM: ATOMS id type xs ys zs
376 2 0.0598372 0.105496 0.0317211
380 2 0.0598372 0.105496 0.0307161
396 2 0.0598372 0.10468 0.0317211
400 2 0.0598372 0.10468 0.0307161
476 2 0.0590209 0.105496 0.0317211
480 2 0.0590209 0.105496 0.0307161
496 2 0.0590209 0.10468 0.0317211
500 2 0.0590209 0.10468 0.0307161
502 2 0.105496 0.0598372 0.156595
522 2 0.105496 0.0590209 0.156595
602 2 0.10468 0.0598372 0.156595
622 2 0.10468 0.0590209 0.156595
1251 1 0.0202178 0.0202178 0.0941583
1255 1 0.0202178 0.0202178 0.0931533
1271 1 0.0202178 0.0194016 0.0941583
1275 1 0.0202178 0.0194016 0.0931533
1351 1 0.0194016 0.0202178 0.0941583
1355 1 0.0194016 0.0202178 0.0931533
1371 1 0.0194016 0.0194016 0.0941583
1375 1 0.0194016 0.0194016 0.0931533
277 2 0.230394 0.105496 0.156595
297 2 0.230394 0.10468 0.156595
651 2 0.184735 0.0598372 0.0317211
655 2 0.184735 0.0598372 0.0307161
671 2 0.184735 0.0590209 0.0317211
675 2 0.184735 0.0590209 0.0307161
1276 1 0.270014 0.0202178 0.0941583
1280 1 0.270014 0.0202178 0.0931533
1296 1 0.270014 0.0194016 0.0941583
1300 1 0.270014 0.0194016 0.0931533
401 2 0.309633 0.105496 0.0317211
405 2 0.309633 0.105496 0.0307161
421 2 0.309633 0.10468 0.0317211
425 2 0.309633 0.10468 0.0307161
527 2 0.355292 0.0598372 0.156595
547 2 0.355292 0.0590209 0.156595
302 2 0.48019 0.105496 0.156595
322 2 0.48019 0.10468 0.156595
426 2 0.559429 0.105496 0.0317211
430 2 0.559429 0.105496 0.0307161
446 2 0.559429 0.10468 0.0317211
450 2 0.559429 0.10468 0.0307161
676 2 0.434531 0.0598372 0.0317211
680 2 0.434531 0.0598372 0.0307161
696 2 0.434531 0.0590209 0.0317211
700 2 0.434531 0.0590209 0.0307161
1301 1 0.51981 0.0202178 0.0941583
1305 1 0.51981 0.0202178 0.0931533
1321 1 0.51981 0.0194016 0.0941583
1325 1 0.51981 0.0194016 0.0931533
552 2 0.605088 0.0598372 0.156595
572 2 0.605088 0.0590209 0.156595
701 2 0.684327 0.0598372 0.0317211
705 2 0.684327 0.0598372 0.0307161
721 2 0.684327 0.0590209 0.0317211
725 2 0.684327 0.0590209 0.0307161
327 2 0.729986 0.105496 0.156595
347 2 0.729986 0.10468 0.156595
451 2 0.809225 0.105496 0.0317211
455 2 0.809225 0.105496 0.0307161
471 2 0.809225 0.10468 0.0317211
475 2 0.809225 0.10468 0.0307161
577 2 0.854884 0.0598372 0.156595
597 2 0.854884 0.0590209 0.156595
1326 1 0.769606 0.0202178 0.0941583
1330 1 0.769606 0.0202178 0.0931533
1346 1 0.769606 0.0194016 0.0941583
1350 1 0.769606 0.0194016 0.0931533
252 2 0.980598 0.105496 0.156595
272 2 0.980598 0.10468 0.156595
352 2 0.979782 0.105496 0.156595
372 2 0.979782 0.10468 0.156595
626 2 0.934939 0.0598372 0.0317211
630 2 0.934939 0.0598372 0.0307161
646 2 0.934939 0.0590209 0.0317211
650 2 0.934939 0.0590209 0.0307161
726 2 0.934123 0.0598372 0.0317211
730 2 0.934123 0.0598372 0.0307161
746 2 0.934123 0.0590209 0.0317211
750 2 0.934123 0.0590209 0.0307161
132 2 0.0598372 0.184735 0.156595
232 2 0.0590209 0.184735 0.156595
756 2 0.105496 0.230394 0.0317211
760 2 0.105496 0.230394 0.0307161
856 2 0.10468 0.230394 0.0317211
860 2 0.10468 0.230394 0.0307161
1256 1 0.0202178 0.270014 0.0941583
1260 1 0.0202178 0.270014 0.0931533
1356 1 0.0194016 0.270014 0.0941583
1360 1 0.0194016 0.270014 0.0931533
31 2 0.230394 0.184735 0.0317211
35 2 0.230394 0.184735 0.0307161
907 2 0.184735 0.230394 0.156595
1156 1 0.145116 0.145116 0.0941583
1160 1 0.145116 0.145116 0.0931533
1281 1 0.270014 0.270014 0.0941583
1285 1 0.270014 0.270014 0.0931533
157 2 0.309633 0.184735 0.156595
781 2 0.355292 0.230394 0.0317211
785 2 0.355292 0.230394 0.0307161
1181 1 0.394912 0.145116 0.0941583
1185 1 0.394912 0.145116 0.0931533
56 2 0.48019 0.184735 0.0317211
60 2 0.48019 0.184735 0.0307161
182 2 0.559429 0.184735 0.156595
932 2 0.434531 0.230394 0.156595
1306 1 0.51981 0.270014 0.0941583
1310 1 0.51981 0.270014 0.0931533
806 2 0.605088 0.230394 0.0317211
810 2 0.605088 0.230394 0.0307161
957 2 0.684327 0.230394 0.156595
1206 1 0.644708 0.145116 0.0941583
1210 1 0.644708 0.145116 0.0931533
81 2 0.729986 0.184735 0.0317211
85 2 0.729986 0.184735 0.0307161
207 2 0.809225 0.184735 0.156595
831 2 0.854884 0.230394 0.0317211
835 2 0.854884 0.230394 0.0307161
1331 1 0.769606 0.270014 0.0941583
1335 1 0.769606 0.270014 0.0931533
6 2 0.980598 0.184735 0.0317211
10 2 0.980598 0.184735 0.0307161
106 2 0.979782 0.184735 0.0317211
110 2 0.979782 0.184735 0.0307161
882 2 0.934939 0.230394 0.156595
982 2 0.934123 0.230394 0.156595
1131 1 0.89532 0.145116 0.0941583
1135 1 0.89532 0.145116 0.0931533
1231 1 0.894504 0.145116 0.0941583
1235 1 0.894504 0.145116 0.0931533
381 2 0.0598372 0.355292 0.0317211
385 2 0.0598372 0.355292 0.0307161
481 2 0.0590209 0.355292 0.0317211
485 2 0.0590209 0.355292 0.0307161
507 2 0.105496 0.309633 0.156595
607 2 0.10468 0.309633 0.156595
282 2 0.230394 0.355292 0.156595
656 2 0.184735 0.309633 0.0317211
660 2 0.184735 0.309633 0.0307161
1161 1 0.145116 0.394912 0.0941583
1165 1 0.145116 0.394912 0.0931533
406 2 0.309633 0.355292 0.0317211
410 2 0.309633 0.355292 0.0307161
532 2 0.355292 0.309633 0.156595
1186 1 0.394912 0.394912 0.0941583
1190 1 0.394912 0.394912 0.0931533
307 2 0.48019 0.355292 0.156595
431 2 0.559429 0.355292 0.0317211
435 2 0.559429 0.355292 0.0307161
681 2 0.434531 0.309633 0.0317211
685 2 0.434531 0.309633 0.0307161
557 2 0.605088 0.309633 0.156595
706 2 0.684327 0.309633 0.0317211
710 2 0.684327 0.309633 0.0307161
1211 1 0.644708 0.394912 0.0941583
1215 1 0.644708 0.394912 0.0931533
332 2 0.729986 0.355292 0.156595
456 2 0.809225 0.355292 0.0317211
460 2 0.809225 0.355292 0.0307161
582 2 0.854884 0.309633 0.156595
257 2 0.980598 0.355292 0.156595
357 2 0.979782 0.355292 0.156595
631 2 0.934939 0.309633 0.0317211
635 2 0.934939 0.309633 0.0307161
731 2 0.934123 0.309633 0.0317211
735 2 0.934123 0.309633 0.0307161
1136 1 0.89532 0.394912 0.0941583
1140 1 0.89532 0.394912 0.0931533
1236 1 0.894504 0.394912 0.0941583
1240 1 0.894504 0.394912 0.0931533
137 2 0.0598372 0.434531 0.156595
237 2 0.0590209 0.434531 0.156595
512 2 0.105496 0.559429 0.156595
612 2 0.10468 0.559429 0.156595
761 2 0.105496 0.48019 0.0317211
765 2 0.105496 0.48019 0.0307161
861 2 0.10468 0.48019 0.0317211
865 2 0.10468 0.48019 0.0307161
1261 1 0.0202178 0.51981 0.0941583
1265 1 0.0202178 0.51981 0.0931533
1361 1 0.0194016 0.51981 0.0941583
1365 1 0.0194016 0.51981 0.0931533
36 2 0.230394 0.434531 0.0317211
40 2 0.230394 0.434531 0.0307161
661 2 0.184735 0.559429 0.0317211
665 2 0.184735 0.559429 0.0307161
912 2 0.184735 0.48019 0.156595
1286 1 0.270014 0.51981 0.0941583
1290 1 0.270014 0.51981 0.0931533
162 2 0.309633 0.434531 0.156595
537 2 0.355292 0.559429 0.156595
786 2 0.355292 0.48019 0.0317211
790 2 0.355292 0.48019 0.0307161
61 2 0.48019 0.434531 0.0317211
65 2 0.48019 0.434531 0.0307161
187 2 0.559429 0.434531 0.156595
686 2 0.434531 0.559429 0.0317211
690 2 0.434531 0.559429 0.0307161
937 2 0.434531 0.48019 0.156595
1311 1 0.51981 0.51981 0.0941583
1315 1 0.51981 0.51981 0.0931533
562 2 0.605088 0.559429 0.156595
711 2 0.684327 0.559429 0.0317211
715 2 0.684327 0.559429 0.0307161
811 2 0.605088 0.48019 0.0317211
815 2 0.605088 0.48019 0.0307161
962 2 0.684327 0.48019 0.156595
86 2 0.729986 0.434531 0.0317211
90 2 0.729986 0.434531 0.0307161
212 2 0.809225 0.434531 0.156595
587 2 0.854884 0.559429 0.156595
836 2 0.854884 0.48019 0.0317211
840 2 0.854884 0.48019 0.0307161
1336 1 0.769606 0.51981 0.0941583
1340 1 0.769606 0.51981 0.0931533
11 2 0.980598 0.434531 0.0317211
15 2 0.980598 0.434531 0.0307161
111 2 0.979782 0.434531 0.0317211
115 2 0.979782 0.434531 0.0307161
636 2 0.934939 0.559429 0.0317211
640 2 0.934939 0.559429 0.0307161
736 2 0.934123 0.559429 0.0317211
740 2 0.934123 0.559429 0.0307161
887 2 0.934939 0.48019 0.156595
987 2 0.934123 0.48019 0.156595
142 2 0.0598372 0.684327 0.156595
242 2 0.0590209 0.684327 0.156595
386 2 0.0598372 0.605088 0.0317211
390 2 0.0598372 0.605088 0.0307161
486 2 0.0590209 0.605088 0.0317211
490 2 0.0590209 0.605088 0.0307161
41 2 0.230394 0.684327 0.0317211
45 2 0.230394 0.684327 0.0307161
287 2 0.230394 0.605088 0.156595
1166 1 0.145116 0.644708 0.0941583
1170 1 0.145116 0.644708 0.0931533
167 2 0.309633 0.684327 0.156595
411 2 0.309633 0.605088 0.0317211
415 2 0.309633 0.605088 0.0307161
1191 1 0.394912 0.644708 0.0941583
1195 1 0.394912 0.644708 0.0931533
66 2 0.48019 0.684327 0.0317211
70 2 0.48019 0.684327 0.0307161
192 2 0.559429 0.684327 0.156595
312 2 0.48019 0.605088 0.156595
436 2 0.559429 0.605088 0.0317211
440 2 0.559429 0.605088 0.0307161
1216 1 0.644708 0.644708 0.0941583
1220 1 0.644708 0.644708 0.0931533
91 2 0.729986 0.684327 0.0317211
95 2 0.729986 0.684327 0.0307161
217 2 0.809225 0.684327 0.156595
337 2 0.729986 0.605088 0.156595
461 2 0.809225 0.605088 0.0317211
465 2 0.809225 0.605088 0.0307161
16 2 0.980598 0.684327 0.0317211
20 2 0.980598 0.684327 0.0307161
116 2 0.979782 0.684327 0.0317211
120 2 0.979782 0.684327 0.0307161
262 2 0.980598 0.605088 0.156595
362 2 0.979782 0.605088 0.156595
1141 1 0.89532 0.644708 0.0941583
1145 1 0.89532 0.644708 0.0931533
1241 1 0.894504 0.644708 0.0941583
1245 1 0.894504 0.644708 0.0931533
391 2 0.0598372 0.854884 0.0317211
395 2 0.0598372 0.854884 0.0307161
491 2 0.0590209 0.854884 0.0317211
495 2 0.0590209 0.854884 0.0307161
517 2 0.105496 0.809225 0.156595
617 2 0.10468 0.809225 0.156595
766 2 0.105496 0.729986 0.0317211
770 2 0.105496 0.729986 0.0307161
866 2 0.10468 0.729986 0.0317211
870 2 0.10468 0.729986 0.0307161
1266 1 0.0202178 0.769606 0.0941583
1270 1 0.0202178 0.769606 0.0931533
1366 1 0.0194016 0.769606 0.0941583
1370 1 0.0194016 0.769606 0.0931533
292 2 0.230394 0.854884 0.156595
666 2 0.184735 0.809225 0.0317211
670 2 0.184735 0.809225 0.0307161
917 2 0.184735 0.729986 0.156595
1291 1 0.270014 0.769606 0.0941583
1295 1 0.270014 0.769606 0.0931533
416 2 0.309633 0.854884 0.0317211
420 2 0.309633 0.854884 0.0307161
542 2 0.355292 0.809225 0.156595
791 2 0.355292 0.729986 0.0317211
795 2 0.355292 0.729986 0.0307161
317 2 0.48019 0.854884 0.156595
441 2 0.559429 0.854884 0.0317211
445 2 0.559429 0.854884 0.0307161
691 2 0.434531 0.809225 0.0317211
695 2 0.434531 0.809225 0.0307161
942 2 0.434531 0.729986 0.156595
1316 1 0.51981 0.769606 0.0941583
1320 1 0.51981 0.769606 0.0931533
567 2 0.605088 0.809225 0.156595
716 2 0.684327 0.809225 0.0317211
720 2 0.684327 0.809225 0.0307161
816 2 0.605088 0.729986 0.0317211
820 2 0.605088 0.729986 0.0307161
967 2 0.684327 0.729986 0.156595
342 2 0.729986 0.854884 0.156595
466 2 0.809225 0.854884 0.0317211
470 2 0.809225 0.854884 0.0307161
592 2 0.854884 0.809225 0.156595
841 2 0.854884 0.729986 0.0317211
845 2 0.854884 0.729986 0.0307161
1341 1 0.769606 0.769606 0.0941583
1345 1 0.769606 0.769606 0.0931533
267 2 0.980598 0.854884 0.156595
367 2 0.979782 0.854884 0.156595
641 2 0.934939 0.809225 0.0317211
645 2 0.934939 0.809225 0.0307161
741 2 0.934123 0.809225 0.0317211
745 2 0.934123 0.809225 0.0307161
892 2 0.934939 0.729986 0.156595
992 2 0.934123 0.729986 0.156595
127 2 0.0598372 0.934939 0.156595
147 2 0.0598372 0.934123 0.156595
227 2 0.0590209 0.934939 0.156595
247 2 0.0590209 0.934123 0.156595
751 2 0.105496 0.980598 0.0317211
755 2 0.105496 0.980598 0.0307161
771 2 0.105496 0.979782 0.0317211
775 2 0.105496 0.979782 0.0307161
851 2 0.10468 0.980598 0.0317211
855 2 0.10468 0.980598 0.0307161
871 2 0.10468 0.979782 0.0317211
875 2 0.10468 0.979782 0.0307161
26 2 0.230394 0.934939 0.0317211
30 2 0.230394 0.934939 0.0307161
46 2 0.230394 0.934123 0.0317211
50 2 0.230394 0.934123 0.0307161
902 2 0.184735 0.980598 0.156595
922 2 0.184735 0.979782 0.156595
1151 1 0.145116 0.89532 0.0941583
1155 1 0.145116 0.89532 0.0931533
1171 1 0.145116 0.894504 0.0941583
1175 1 0.145116 0.894504 0.0931533
152 2 0.309633 0.934939 0.156595
172 2 0.309633 0.934123 0.156595
776 2 0.355292 0.980598 0.0317211
780 2 0.355292 0.980598 0.0307161
796 2 0.355292 0.979782 0.0317211
800 2 0.355292 0.979782 0.0307161
1176 1 0.394912 0.89532 0.0941583
1180 1 0.394912 0.89532 0.0931533
1196 1 0.394912 0.894504 0.0941583
1200 1 0.394912 0.894504 0.0931533
51 2 0.48019 0.934939 0.0317211
55 2 0.48019 0.934939 0.0307161
71 2 0.48019 0.934123 0.0317211
75 2 0.48019 0.934123 0.0307161
177 2 0.559429 0.934939 0.156595
197 2 0.559429 0.934123 0.156595
927 2 0.434531 0.980598 0.156595
947 2 0.434531 0.979782 0.156595
801 2 0.605088 0.980598 0.0317211
805 2 0.605088 0.980598 0.0307161
821 2 0.605088 0.979782 0.0317211
825 2 0.605088 0.979782 0.0307161
952 2 0.684327 0.980598 0.156595
972 2 0.684327 0.979782 0.156595
1201 1 0.644708 0.89532 0.0941583
1205 1 0.644708 0.89532 0.0931533
1221 1 0.644708 0.894504 0.0941583
1225 1 0.644708 0.894504 0.0931533
76 2 0.729986 0.934939 0.0317211
80 2 0.729986 0.934939 0.0307161
96 2 0.729986 0.934123 0.0317211
100 2 0.729986 0.934123 0.0307161
202 2 0.809225 0.934939 0.156595
222 2 0.809225 0.934123 0.156595
826 2 0.854884 0.980598 0.0317211
830 2 0.854884 0.980598 0.0307161
846 2 0.854884 0.979782 0.0317211
850 2 0.854884 0.979782 0.0307161
1 2 0.980598 0.934939 0.0317211
5 2 0.980598 0.934939 0.0307161
21 2 0.980598 0.934123 0.0317211
25 2 0.980598 0.934123 0.0307161
101 2 0.979782 0.934939 0.0317211
105 2 0.979782 0.934939 0.0307161
121 2 0.979782 0.934123 0.0317211
125 2 0.979782 0.934123 0.0307161
877 2 0.934939 0.980598 0.156595
897 2 0.934939 0.979782 0.156595
977 2 0.934123 0.980598 0.156595
997 2 0.934123 0.979782 0.156595
1126 1 0.89532 0.89532 0.0941583
1130 1 0.89532 0.89532 0.0931533
1146 1 0.89532 0.894504 0.0941583
1150 1 0.89532 0.894504 0.0931533
1226 1 0.894504 0.89532 0.0941583
1230 1 0.894504 0.89532 0.0931533
1246 1 0.894504 0.894504 0.0941583
1250 1 0.894504 0.894504 0.0931533
377 2 0.0598372 0.105496 0.28147
397 2 0.0598372 0.10468 0.28147
477 2 0.0590209 0.105496 0.28147
497 2 0.0590209 0.10468 0.28147
1252 1 0.0202178 0.0202178 0.343907
1272 1 0.0202178 0.0194016 0.343907
1352 1 0.0194016 0.0202178 0.343907
1372 1 0.0194016 0.0194016 0.343907
1377 1 0.0202178 0.0202178 0.219033
1397 1 0.0202178 0.0194016 0.219033
1477 1 0.0194016 0.0202178 0.219033
1497 1 0.0194016 0.0194016 0.219033
652 2 0.184735 0.0598372 0.28147
672 2 0.184735 0.0590209 0.28147
1277 1 0.270014 0.0202178 0.343907
1297 1 0.270014 0.0194016 0.343907
1402 1 0.270014 0.0202178 0.219033
1422 1 0.270014 0.0194016 0.219033
402 2 0.309633 0.105496 0.28147
422 2 0.309633 0.10468 0.28147
427 2 0.559429 0.105496 0.28147
447 2 0.559429 0.10468 0.28147
677 2 0.434531 0.0598372 0.28147
697 2 0.434531 0.0590209 0.28147
1302 1 0.51981 0.0202178 0.343907
1322 1 0.51981 0.0194016 0.343907
1427 1 0.51981 0.0202178 0.219033
1447 1 0.51981 0.0194016 0.219033
702 2 0.684327 0.0598372 0.28147
722 2 0.684327 0.0590209 0.28147
452 2 0.809225 0.105496 0.28147
472 2 0.809225 0.10468 0.28147
1327 1 0.769606 0.0202178 0.343907
1347 1 0.769606 0.0194016 0.343907
1452 1 0.769606 0.0202178 0.219033
1472 1 0.769606 0.0194016 0.219033
627 2 0.934939 0.0598372 0.28147
647 2 0.934939 0.0590209 0.28147
727 2 0.934123 0.0598372 0.28147
747 2 0.934123 0.0590209 0.28147
757 2 0.105496 0.230394 0.28147
857 2 0.10468 0.230394 0.28147
1257 1 0.0202178 0.270014 0.343907
1357 1 0.0194016 0.270014 0.343907
1382 1 0.0202178 0.270014 0.219033
1482 1 0.0194016 0.270014 0.219033
32 2 0.230394 0.184735 0.28147
1032 1 0.145116 0.145116 0.219033
1157 1 0.145116 0.145116 0.343907
1282 1 0.270014 0.270014 0.343907
1407 1 0.270014 0.270014 0.219033
782 2 0.355292 0.230394 0.28147
1057 1 0.394912 0.145116 0.219033
1182 1 0.394912 0.145116 0.343907
57 2 0.48019 0.184735 0.28147
1307 1 0.51981 0.270014 0.343907
1432 1 0.51981 0.270014 0.219033
807 2 0.605088 0.230394 0.28147
1082 1 0.644708 0.145116 0.219033
1207 1 0.644708 0.145116 0.343907
82 2 0.729986 0.184735 0.28147
832 2 0.854884 0.230394 0.28147
1332 1 0.769606 0.270014 0.343907
1457 1 0.769606 0.270014 0.219033
7 2 0.980598 0.184735 0.28147
107 2 0.979782 0.184735 0.28147
1007 1 0.89532 0.145116 0.219033
1107 1 0.894504 0.145116 0.219033
1132 1 0.89532 0.145116 0.343907
1232 1 0.894504 0.145116 0.343907
382 2 0.0598372 0.355292 0.28147
482 2 0.0590209 0.355292 0.28147
657 2 0.184735 0.309633 0.28147
1037 1 0.145116 0.394912 0.219033
1162 1 0.145116 0.394912 0.343907
407 2 0.309633 0.355292 0.28147
1062 1 0.394912 0.394912 0.219033
1187 1 0.394912 0.394912 0.343907
432 2 0.559429 0.355292 0.28147
682 2 0.434531 0.309633 0.28147
707 2 0.684327 0.309633 0.28147
1087 1 0.644708 0.394912 0.219033
1212 1 0.644708 0.394912 0.343907
457 2 0.809225 0.355292 0.28147
632 2 0.934939 0.309633 0.28147
732 2 0.934123 0.309633 0.28147
1012 1 0.89532 0.394912 0.219033
1112 1 0.894504 0.394912 0.219033
1137 1 0.89532 0.394912 0.343907
1237 1 0.894504 0.394912 0.343907
762 2 0.105496 0.48019 0.28147
862 2 0.10468 0.48019 0.28147
1262 1 0.0202178 0.51981 0.343907
1362 1 0.0194016 0.51981 0.343907
1387 1 0.0202178 0.51981 0.219033
1487 1 0.0194016 0.51981 0.219033
37 2 0.230394 0.434531 0.28147
662 2 0.184735 0.559429 0.28147
1287 1 0.270014 0.51981 0.343907
1412 1 0.270014 0.51981 0.219033
787 2 0.355292 0.48019 0.28147
62 2 0.48019 0.434531 0.28147
687 2 0.434531 0.559429 0.28147
1312 1 0.51981 0.51981 0.343907
1437 1 0.51981 0.51981 0.219033
712 2 0.684327 0.559429 0.28147
812 2 0.605088 0.48019 0.28147
87 2 0.729986 0.434531 0.28147
837 2 0.854884 0.48019 0.28147
1337 1 0.769606 0.51981 0.343907
1462 1 0.769606 0.51981 0.219033
12 2 0.980598 0.434531 0.28147
112 2 0.979782 0.434531 0.28147
637 2 0.934939 0.559429 0.28147
737 2 0.934123 0.559429 0.28147
387 2 0.0598372 0.605088 0.28147
487 2 0.0590209 0.605088 0.28147
42 2 0.230394 0.684327 0.28147
1042 1 0.145116 0.644708 0.219033
1167 1 0.145116 0.644708 0.343907
412 2 0.309633 0.605088 0.28147
1067 1 0.394912 0.644708 0.219033
1192 1 0.394912 0.644708 0.343907
67 2 0.48019 0.684327 0.28147
437 2 0.559429 0.605088 0.28147
1092 1 0.644708 0.644708 0.219033
1217 1 0.644708 0.644708 0.343907
92 2 0.729986 0.684327 0.28147
462 2 0.809225 0.605088 0.28147
17 2 0.980598 0.684327 0.28147
117 2 0.979782 0.684327 0.28147
1017 1 0.89532 0.644708 0.219033
1117 1 0.894504 0.644708 0.219033
1142 1 0.89532 0.644708 0.343907
1242 1 0.894504 0.644708 0.343907
392 2 0.0598372 0.854884 0.28147
492 2 0.0590209 0.854884 0.28147
767 2 0.105496 0.729986 0.28147
867 2 0.10468 0.729986 0.28147
1267 1 0.0202178 0.769606 0.343907
1367 1 0.0194016 0.769606 0.343907
1392 1 0.0202178 0.769606 0.219033
1492 1 0.0194016 0.769606 0.219033
667 2 0.184735 0.809225 0.28147
1292 1 0.270014 0.769606 0.343907
1417 1 0.270014 0.769606 0.219033
417 2 0.309633 0.854884 0.28147
792 2 0.355292 0.729986 0.28147
442 2 0.559429 0.854884 0.28147
692 2 0.434531 0.809225 0.28147
1317 1 0.51981 0.769606 0.343907
1442 1 0.51981 0.769606 0.219033
717 2 0.684327 0.809225 0.28147
817 2 0.605088 0.729986 0.28147
467 2 0.809225 0.854884 0.28147
842 2 0.854884 0.729986 0.28147
1342 1 0.769606 0.769606 0.343907
1467 1 0.769606 0.769606 0.219033
642 2 0.934939 0.809225 0.28147
742 2 0.934123 0.809225 0.28147
752 2 0.105496 0.980598 0.28147
772 2 0.105496 0.979782 0.28147
852 2 0.10468 0.980598 0.28147
872 2 0.10468 0.979782 0.28147
27 2 0.230394 0.934939 0.28147
47 2 0.230394 0.934123 0.28147
1027 1 0.145116 0.89532 0.219033
1047 1 0.145116 0.894504 0.219033
1152 1 0.145116 0.89532 0.343907
1172 1 0.145116 0.894504 0.343907
777 2 0.355292 0.980598 0.28147
797 2 0.355292 0.979782 0.28147
1052 1 0.394912 0.89532 0.219033
1072 1 0.394912 0.894504 0.219033
1177 1 0.394912 0.89532 0.343907
1197 1 0.394912 0.894504 0.343907
52 2 0.48019 0.934939 0.28147
72 2 0.48019 0.934123 0.28147
802 2 0.605088 0.980598 0.28147
822 2 0.605088 0.979782 0.28147
1077 1 0.644708 0.89532 0.219033
1097 1 0.644708 0.894504 0.219033
1202 1 0.644708 0.89532 0.343907
1222 1 0.644708 0.894504 0.343907
77 2 0.729986 0.934939 0.28147
97 2 0.729986 0.934123 0.28147
827 2 0.854884 0.980598 0.28147
847 2 0.854884 0.979782 0.28147
2 2 0.980598 0.934939 0.28147
22 2 0.980598 0.934123 0.28147
102 2 0.979782 0.934939 0.28147
122 2 0.979782 0.934123 0.28147
1002 1 0.89532 0.89532 0.219033
1022 1 0.89532 0.894504 0.219033
1102 1 0.894504 0.89532 0.219033
1122 1 0.894504 0.894504 0.219033
1127 1 0.89532 0.89532 0.343907
1147 1 0.89532 0.894504 0.343907
1227 1 0.894504 0.89532 0.343907
1247 1 0.894504 0.894504 0.343907
378 2 0.0598372 0.105496 0.531219
398 2 0.0598372 0.10468 0.531219
478 2 0.0590209 0.105496 0.531219
498 2 0.0590209 0.10468 0.531219
503 2 0.105496 0.0598372 0.406344
523 2 0.105496 0.0590209 0.406344
603 2 0.10468 0.0598372 0.406344
623 2 0.10468 0.0590209 0.406344
1253 1 0.0202178 0.0202178 0.593656
1273 1 0.0202178 0.0194016 0.593656
1353 1 0.0194016 0.0202178 0.593656
1373 1 0.0194016 0.0194016 0.593656
1378 1 0.0202178 0.0202178 0.468781
1398 1 0.0202178 0.0194016 0.468781
1478 1 0.0194016 0.0202178 0.468781
1498 1 0.0194016 0.0194016 0.468781
278 2 0.230394 0.105496 0.406344
298 2 0.230394 0.10468 0.406344
653 2 0.184735 0.0598372 0.531219
673 2 0.184735 0.0590209 0.531219
1278 1 0.270014 0.0202178 0.593656
1298 1 0.270014 0.0194016 0.593656
1403 1 0.270014 0.0202178 0.468781
1423 1 0.270014 0.0194016 0.468781
403 2 0.309633 0.105496 0.531219
423 2 0.309633 0.10468 0.531219
528 2 0.355292 0.0598372 0.406344
548 2 0.355292 0.0590209 0.406344
303 2 0.48019 0.105496 0.406344
323 2 0.48019 0.10468 0.406344
428 2 0.559429 0.105496 0.531219
448 2 0.559429 0.10468 0.531219
678 2 0.434531 0.0598372 0.531219
698 2 0.434531 0.0590209 0.531219
1303 1 0.51981 0.0202178 0.593656
1323 1 0.51981 0.0194016 0.593656
1428 1 0.51981 0.0202178 0.468781
1448 1 0.51981 0.0194016 0.468781
553 2 0.605088 0.0598372 0.406344
573 2 0.605088 0.0590209 0.406344
703 2 0.684327 0.0598372 0.531219
723 2 0.684327 0.0590209 0.531219
328 2 0.729986 0.105496 0.406344
348 2 0.729986 0.10468 0.406344
453 2 0.809225 0.105496 0.531219
473 2 0.809225 0.10468 0.531219
578 2 0.854884 0.0598372 0.406344
598 2 0.854884 0.0590209 0.406344
1328 1 0.769606 0.0202178 0.593656
1348 1 0.769606 0.0194016 0.593656
1453 1 0.769606 0.0202178 0.468781
1473 1 0.769606 0.0194016 0.468781
253 2 0.980598 0.105496 0.406344
273 2 0.980598 0.10468 0.406344
353 2 0.979782 0.105496 0.406344
373 2 0.979782 0.10468 0.406344
628 2 0.934939 0.0598372 0.531219
648 2 0.934939 0.0590209 0.531219
728 2 0.934123 0.0598372 0.531219
748 2 0.934123 0.0590209 0.531219
133 2 0.0598372 0.184735 0.406344
233 2 0.0590209 0.184735 0.406344
758 2 0.105496 0.230394 0.531219
858 2 0.10468 0.230394 0.531219
1258 1 0.0202178 0.270014 0.593656
1358 1 0.0194016 0.270014 0.593656
1383 1 0.0202178 0.270014 0.468781
1483 1 0.0194016 0.270014 0.468781
33 2 0.230394 0.184735 0.531219
908 2 0.184735 0.230394 0.406344
1033 1 0.145116 0.145116 0.468781
1158 1 0.145116 0.145116 0.593656
1283 1 0.270014 0.270014 0.593656
1408 1 0.270014 0.270014 0.468781
158 2 0.309633 0.184735 0.406344
783 2 0.355292 0.230394 0.531219
1058 1 0.394912 0.145116 0.468781
1183 1 0.394912 0.145116 0.593656
58 2 0.48019 0.184735 0.531219
183 2 0.559429 0.184735 0.406344
933 2 0.434531 0.230394 0.406344
1308 1 0.51981 0.270014 0.593656
1433 1 0.51981 0.270014 0.468781
808 2 0.605088 0.230394 0.531219
958 2 0.684327 0.230394 0.406344
1083 1 0.644708 0.145116 0.468781
1208 1 0.644708 0.145116 0.593656
83 2 0.729986 0.184735 0.531219
208 2 0.809225 0.184735 0.406344
833 2 0.854884 0.230394 0.531219
1333 1 0.769606 0.270014 0.593656
1458 1 0.769606 0.270014 0.468781
8 2 0.980598 0.184735 0.531219
108 2 0.979782 0.184735 0.531219
883 2 0.934939 0.230394 0.406344
983 2 0.934123 0.230394 0.406344
1008 1 0.89532 0.145116 0.468781
1108 1 0.894504 0.145116 0.468781
1133 1 0.89532 0.145116 0.593656
1233 1 0.894504 0.145116 0.593656
383 2 0.0598372 0.355292 0.531219
483 2 0.0590209 0.355292 0.531219
508 2 0.105496 0.309633 0.406344
608 2 0.10468 0.309633 0.406344
283 2 0.230394 0.355292 0.406344
658 2 0.184735 0.309633 0.531219
1038 1 0.145116 0.394912 0.468781
1163 1 0.145116 0.394912 0.593656
408 2 0.309633 0.355292 0.531219
533 2 0.355292 0.309633 0.406344
1063 1 0.394912 0.394912 0.468781
1188 1 0.394912 0.394912 0.593656
308 2 0.48019 0.355292 0.406344
433 2 0.559429 0.355292 0.531219
683 2 0.434531 0.309633 0.531219
558 2 0.605088 0.309633 0.406344
708 2 0.684327 0.309633 0.531219
1088 1 0.644708 0.394912 0.468781
1213 1 0.644708 0.394912 0.593656
333 2 0.729986 0.355292 0.406344
458 2 0.809225 0.355292 0.531219
583 2 0.854884 0.309633 0.406344
258 2 0.980598 0.355292 0.406344
358 2 0.979782 0.355292 0.406344
633 2 0.934939 0.309633 0.531219
733 2 0.934123 0.309633 0.531219
1013 1 0.89532 0.394912 0.468781
1113 1 0.894504 0.394912 0.468781
1138 1 0.89532 0.394912 0.593656
1238 1 0.894504 0.394912 0.593656
138 2 0.0598372 0.434531 0.406344
238 2 0.0590209 0.434531 0.406344
513 2 0.105496 0.559429 0.406344
613 2 0.10468 0.559429 0.406344
763 2 0.105496 0.48019 0.531219
863 2 0.10468 0.48019 0.531219
1263 1 0.0202178 0.51981 0.593656
1363 1 0.0194016 0.51981 0.593656
1388 1 0.0202178 0.51981 0.468781
1488 1 0.0194016 0.51981 0.468781
38 2 0.230394 0.434531 0.531219
663 2 0.184735 0.559429 0.531219
913 2 0.184735 0.48019 0.406344
1288 1 0.270014 0.51981 0.593656
1413 1 0.270014 0.51981 0.468781
163 2 0.309633 0.434531 0.406344
538 2 0.355292 0.559429 0.406344
788 2 0.355292 0.48019 0.531219
63 2 0.48019 0.434531 0.531219
188 2 0.559429 0.434531 0.406344
688 2 0.434531 0.559429 0.531219
938 2 0.434531 0.48019 0.406344
1313 1 0.51981 0.51981 0.593656
1438 1 0.51981 0.51981 0.468781
563 2 0.605088 0.559429 0.406344
713 2 0.684327 0.559429 0.531219
813 2 0.605088 0.48019 0.531219
963 2 0.684327 0.48019 0.406344
88 2 0.729986 0.434531 0.531219
213 2 0.809225 0.434531 0.406344
588 2 0.854884 0.559429 0.406344
838 2 0.854884 0.48019 0.531219
1338 1 0.769606 0.51981 0.593656
1463 1 0.769606 0.51981 0.468781
13 2 0.980598 0.434531 0.531219
113 2 0.979782 0.434531 0.531219
638 2 0.934939 0.559429 0.531219
738 2 0.934123 0.559429 0.531219
888 2 0.934939 0.48019 0.406344
988 2 0.934123 0.48019 0.406344
143 2 0.0598372 0.684327 0.406344
243 2 0.0590209 0.684327 0.406344
388 2 0.0598372 0.605088 0.531219
488 2 0.0590209 0.605088 0.531219
43 2 0.230394 0.684327 0.531219
288 2 0.230394 0.605088 0.406344
1043 1 0.145116 0.644708 0.468781
1168 1 0.145116 0.644708 0.593656
168 2 0.309633 0.684327 0.406344
413 2 0.309633 0.605088 0.531219
1068 1 0.394912 0.644708 0.468781
1193 1 0.394912 0.644708 0.593656
68 2 0.48019 0.684327 0.531219
193 2 0.559429 0.684327 0.406344
313 2 0.48019 0.605088 0.406344
438 2 0.559429 0.605088 0.531219
1093 1 0.644708 0.644708 0.468781
1218 1 0.644708 0.644708 0.593656
93 2 0.729986 0.684327 0.531219
218 2 0.809225 0.684327 0.406344
338 2 0.729986 0.605088 0.406344
463 2 0.809225 0.605088 0.531219
18 2 0.980598 0.684327 0.531219
118 2 0.979782 0.684327 0.531219
263 2 0.980598 0.605088 0.406344
363 2 0.979782 0.605088 0.406344
1018 1 0.89532 0.644708 0.468781
1118 1 0.894504 0.644708 0.468781
1143 1 0.89532 0.644708 0.593656
1243 1 0.894504 0.644708 0.593656
393 2 0.0598372 0.854884 0.531219
493 2 0.0590209 0.854884 0.531219
518 2 0.105496 0.809225 0.406344
618 2 0.10468 0.809225 0.406344
768 2 0.105496 0.729986 0.531219
868 2 0.10468 0.729986 0.531219
1268 1 0.0202178 0.769606 0.593656
1368 1 0.0194016 0.769606 0.593656
1393 1 0.0202178 0.769606 0.468781
1493 1 0.0194016 0.769606 0.468781
293 2 0.230394 0.854884 0.406344
668 2 0.184735 0.809225 0.531219
918 2 0.184735 0.729986 0.406344
1293 1 0.270014 0.769606 0.593656
1418 1 0.270014 0.769606 0.468781
418 2 0.309633 0.854884 0.531219
543 2 0.355292 0.809225 0.406344
793 2 0.355292 0.729986 0.531219
318 2 0.48019 0.854884 0.406344
443 2 0.559429 0.854884 0.531219
693 2 0.434531 0.809225 0.531219
943 2 0.434531 0.729986 0.406344
1318 1 0.51981 0.769606 0.593656
1443 1 0.51981 0.769606 0.468781
568 2 0.605088 0.809225 0.406344
718 2 0.684327 0.809225 0.531219
818 2 0.605088 0.729986 0.531219
968 2 0.684327 0.729986 0.406344
343 2 0.729986 0.854884 0.406344
468 2 0.809225 0.854884 0.531219
593 2 0.854884 0.809225 0.406344
843 2 0.854884 0.729986 0.531219
1343 1 0.769606 0.769606 0.593656
1468 1 0.769606 0.769606 0.468781
268 2 0.980598 0.854884 0.406344
368 2 0.979782 0.854884 0.406344
643 2 0.934939 0.809225 0.531219
743 2 0.934123 0.809225 0.531219
893 2 0.934939 0.729986 0.406344
993 2 0.934123 0.729986 0.406344
128 2 0.0598372 0.934939 0.406344
148 2 0.0598372 0.934123 0.406344
228 2 0.0590209 0.934939 0.406344
248 2 0.0590209 0.934123 0.406344
753 2 0.105496 0.980598 0.531219
773 2 0.105496 0.979782 0.531219
853 2 0.10468 0.980598 0.531219
873 2 0.10468 0.979782 0.531219
28 2 0.230394 0.934939 0.531219
48 2 0.230394 0.934123 0.531219
903 2 0.184735 0.980598 0.406344
923 2 0.184735 0.979782 0.406344
1028 1 0.145116 0.89532 0.468781
1048 1 0.145116 0.894504 0.468781
1153 1 0.145116 0.89532 0.593656
1173 1 0.145116 0.894504 0.593656
153 2 0.309633 0.934939 0.406344
173 2 0.309633 0.934123 0.406344
778 2 0.355292 0.980598 0.531219
798 2 0.355292 0.979782 0.531219
1053 1 0.394912 0.89532 0.468781
1073 1 0.394912 0.894504 0.468781
1178 1 0.394912 0.89532 0.593656
1198 1 0.394912 0.894504 0.593656
53 2 0.48019 0.934939 0.531219
73 2 0.48019 0.934123 0.531219
178 2 0.559429 0.934939 0.406344
198 2 0.559429 0.934123 0.406344
928 2 0.434531 0.980598 0.406344
948 2 0.434531 0.979782 0.406344
803 2 0.605088 0.980598 0.531219
823 2 0.605088 0.979782 0.531219
953 2 0.684327 0.980598 0.406344
973 2 0.684327 0.979782 0.406344
1078 1 0.644708 0.89532 0.468781
1098 1 0.644708 0.894504 0.468781
1203 1 0.644708 0.89532 0.593656
1223 1 0.644708 0.894504 0.593656
78 2 0.729986 0.934939 0.531219
98 2 0.729986 0.934123 0.531219
203 2 0.809225 0.934939 0.406344
223 2 0.809225 0.934123 0.406344
828 2 0.854884 0.980598 0.531219
848 2 0.854884 0.979782 0.531219
3 2 0.980598 0.934939 0.531219
23 2 0.980598 0.934123 0.531219
103 2 0.979782 0.934939 0.531219
123 2 0.979782 0.934123 0.531219
878 2 0.934939 0.980598 0.406344