ITEM: TIMESTEP
0
ITEM: NUMBER OF ATOMS
1000
ITEM: BOX BOUNDS pp pp pp
1.9749989999999999e+00 1.8175000000000001e+01
1.9749989999999999e+00 1.8175000000000001e+01
1.9749989999999999e+00 1.8175000000000001e+01
ITEM: ATOMS id type xs ys zs
2 2 0.0853081 0.0437643 0.189043
22 2 0.0853081 0.0388259 0.189043
102 2 0.0803697 0.0437643 0.189043
122 2 0.0803697 0.0388259 0.189043
151 2 0.168396 0.0853081 0.0646606
155 2 0.168396 0.0853081 0.0597222
171 2 0.168396 0.0803697 0.0646606
175 2 0.168396 0.0803697 0.0597222
282 2 0.20994 0.168396 0.189043
406 2 0.168396 0.20994 0.0646606
410 2 0.168396 0.20994 0.0597222
507 2 0.0853081 0.168396 0.189043
607 2 0.0803697 0.168396 0.189043
626 2 0.0437643 0.0853081 0.0646606
630 2 0.0437643 0.0853081 0.0597222
646 2 0.0437643 0.0803697 0.0646606
650 2 0.0437643 0.0803697 0.0597222
726 2 0.0388259 0.0853081 0.0646606
730 2 0.0388259 0.0853081 0.0597222
746 2 0.0388259 0.0803697 0.0646606
750 2 0.0388259 0.0803697 0.0597222
777 1 0.209774 0.0439301 0.189043
797 1 0.209774 0.0389918 0.189043
881 1 0.0439301 0.209774 0.0646606
885 1 0.0439301 0.209774 0.0597222
981 1 0.0389918 0.209774 0.0646606
985 1 0.0389918 0.209774 0.0597222
27 2 0.334073 0.0437643 0.189043
47 2 0.334073 0.0388259 0.189043
176 2 0.417161 0.0853081 0.0646606
180 2 0.417161 0.0853081 0.0597222
196 2 0.417161 0.0803697 0.0646606
200 2 0.417161 0.0803697 0.0597222
307 2 0.458705 0.168396 0.189043
431 2 0.417161 0.20994 0.0646606
435 2 0.417161 0.20994 0.0597222
532 2 0.334073 0.168396 0.189043
651 2 0.29253 0.0853081 0.0646606
655 2 0.29253 0.0853081 0.0597222
671 2 0.29253 0.0803697 0.0646606
675 2 0.29253 0.0803697 0.0597222
802 1 0.458539 0.0439301 0.189043
822 1 0.458539 0.0389918 0.189043
906 1 0.292696 0.209774 0.0646606
910 1 0.292696 0.209774 0.0597222
52 2 0.582839 0.0437643 0.189043
72 2 0.582839 0.0388259 0.189043
201 2 0.665927 0.0853081 0.0646606
205 2 0.665927 0.0853081 0.0597222
221 2 0.665927 0.0803697 0.0646606
225 2 0.665927 0.0803697 0.0597222
332 2 0.70747 0.168396 0.189043
456 2 0.665927 0.20994 0.0646606
460 2 0.665927 0.20994 0.0597222
557 2 0.582839 0.168396 0.189043
676 2 0.541295 0.0853081 0.0646606
680 2 0.541295 0.0853081 0.0597222
696 2 0.541295 0.0803697 0.0646606
700 2 0.541295 0.0803697 0.0597222
827 1 0.707305 0.0439301 0.189043
847 1 0.707305 0.0389918 0.189043
931 1 0.541461 0.209774 0.0646606
935 1 0.541461 0.209774 0.0597222
77 2 0.831604 0.0437643 0.189043
97 2 0.831604 0.0388259 0.189043
126 2 0.91963 0.0853081 0.0646606
130 2 0.91963 0.0853081 0.0597222
146 2 0.91963 0.0803697 0.0646606
150 2 0.91963 0.0803697 0.0597222
226 2 0.914692 0.0853081 0.0646606
230 2 0.914692 0.0853081 0.0597222
246 2 0.914692 0.0803697 0.0646606
250 2 0.914692 0.0803697 0.0597222
257 2 0.961174 0.168396 0.189043
357 2 0.956236 0.168396 0.189043
381 2 0.91963 0.20994 0.0646606
385 2 0.91963 0.20994 0.0597222
481 2 0.914692 0.20994 0.0646606
485 2 0.914692 0.20994 0.0597222
582 2 0.831604 0.168396 0.189043
701 2 0.790061 0.0853081 0.0646606
705 2 0.790061 0.0853081 0.0597222
721 2 0.790061 0.0803697 0.0646606
725 2 0.790061 0.0803697 0.0597222
752 1 0.961008 0.0439301 0.189043
772 1 0.961008 0.0389918 0.189043
852 1 0.95607 0.0439301 0.189043
872 1 0.95607 0.0389918 0.189043
956 1 0.790226 0.209774 0.0646606
960 1 0.790226 0.209774 0.0597222
7 2 0.0853081 0.29253 0.189043
107 2 0.0803697 0.29253 0.189043
156 2 0.168396 0.334073 0.0646606
160 2 0.168396 0.334073 0.0597222
287 2 0.20994 0.417161 0.189043
411 2 0.168396 0.458705 0.0646606
415 2 0.168396 0.458705 0.0597222
512 2 0.0853081 0.417161 0.189043
612 2 0.0803697 0.417161 0.189043
631 2 0.0437643 0.334073 0.0646606
635 2 0.0437643 0.334073 0.0597222
731 2 0.0388259 0.334073 0.0646606
735 2 0.0388259 0.334073 0.0597222
782 1 0.209774 0.292696 0.189043
886 1 0.0439301 0.458539 0.0646606
890 1 0.0439301 0.458539 0.0597222
986 1 0.0389918 0.458539 0.0646606
990 1 0.0389918 0.458539 0.0597222
32 2 0.334073 0.29253 0.189043
181 2 0.417161 0.334073 0.0646606
185 2 0.417161 0.334073 0.0597222
312 2 0.458705 0.417161 0.189043
436 2 0.417161 0.458705 0.0646606
440 2 0.417161 0.458705 0.0597222
537 2 0.334073 0.417161 0.189043
656 2 0.29253 0.334073 0.0646606
660 2 0.29253 0.334073 0.0597222
807 1 0.458539 0.292696 0.189043
911 1 0.292696 0.458539 0.0646606
915 1 0.292696 0.458539 0.0597222
57 2 0.582839 0.29253 0.189043
206 2 0.665927 0.334073 0.0646606
210 2 0.665927 0.334073 0.0597222
337 2 0.70747 0.417161 0.189043
461 2 0.665927 0.458705 0.0646606
465 2 0.665927 0.458705 0.0597222
562 2 0.582839 0.417161 0.189043
681 2 0.541295 0.334073 0.0646606
685 2 0.541295 0.334073 0.0597222
832 1 0.707305 0.292696 0.189043
936 1 0.541461 0.458539 0.0646606
940 1 0.541461 0.458539 0.0597222
82 2 0.831604 0.29253 0.189043
131 2 0.91963 0.334073 0.0646606
135 2 0.91963 0.334073 0.0597222
231 2 0.914692 0.334073 0.0646606
235 2 0.914692 0.334073 0.0597222
262 2 0.961174 0.417161 0.189043
362 2 0.956236 0.417161 0.189043
386 2 0.91963 0.458705 0.0646606
390 2 0.91963 0.458705 0.0597222
486 2 0.914692 0.458705 0.0646606
490 2 0.914692 0.458705 0.0597222
587 2 0.831604 0.417161 0.189043
706 2 0.790061 0.334073 0.0646606
710 2 0.790061 0.334073 0.0597222
757 1 0.961008 0.292696 0.189043
857 1 0.95607 0.292696 0.189043
961 1 0.790226 0.458539 0.0646606
965 1 0.790226 0.458539 0.0597222
12 2 0.0853081 0.541295 0.189043
112 2 0.0803697 0.541295 0.189043
161 2 0.168396 0.582839 0.0646606
165 2 0.168396 0.582839 0.0597222
292 2 0.20994 0.665927 0.189043
416 2 0.168396 0.70747 0.0646606
420 2 0.168396 0.70747 0.0597222
517 2 0.0853081 0.665927 0.189043
617 2 0.0803697 0.665927 0.189043
636 2 0.0437643 0.582839 0.0646606
640 2 0.0437643 0.582839 0.0597222
736 2 0.0388259 0.582839 0.0646606
740 2 0.0388259 0.582839 0.0597222
787 1 0.209774 0.541461 0.189043
891 1 0.0439301 0.707305 0.0646606
895 1 0.0439301 0.707305 0.0597222
991 1 0.0389918 0.707305 0.0646606
995 1 0.0389918 0.707305 0.0597222
37 2 0.334073 0.541295 0.189043
186 2 0.417161 0.582839 0.0646606
190 2 0.417161 0.582839 0.0597222
317 2 0.458705 0.665927 0.189043
441 2 0.417161 0.70747 0.0646606
445 2 0.417161 0.70747 0.0597222
542 2 0.334073 0.665927 0.189043
661 2 0.29253 0.582839 0.0646606
665 2 0.29253 0.582839 0.0597222
812 1 0.458539 0.541461 0.189043
916 1 0.292696 0.707305 0.0646606
920 1 0.292696 0.707305 0.0597222
62 2 0.582839 0.541295 0.189043
211 2 0.665927 0.582839 0.0646606
215 2 0.665927 0.582839 0.0597222
342 2 0.70747 0.665927 0.189043
466 2 0.665927 0.70747 0.0646606
470 2 0.665927 0.70747 0.0597222
567 2 0.582839 0.665927 0.189043
686 2 0.541295 0.582839 0.0646606
690 2 0.541295 0.582839 0.0597222
837 1 0.707305 0.541461 0.189043
941 1 0.541461 0.707305 0.0646606
945 1 0.541461 0.707305 0.0597222
87 2 0.831604 0.541295 0.189043
136 2 0.91963 0.582839 0.0646606
140 2 0.91963 0.582839 0.0597222
236 2 0.914692 0.582839 0.0646606
240 2 0.914692 0.582839 0.0597222
267 2 0.961174 0.665927 0.189043
367 2 0.956236 0.665927 0.189043
391 2 0.91963 0.70747 0.0646606
395 2 0.91963 0.70747 0.0597222
491 2 0.914692 0.70747 0.0646606
495 2 0.914692 0.70747 0.0597222
592 2 0.831604 0.665927 0.189043
711 2 0.790061 0.582839 0.0646606
715 2 0.790061 0.582839 0.0597222
762 1 0.961008 0.541461 0.189043
862 1 0.95607 0.541461 0.189043
966 1 0.790226 0.707305 0.0646606
970 1 0.790226 0.707305 0.0597222
17 2 0.0853081 0.790061 0.189043
117 2 0.0803697 0.790061 0.189043
166 2 0.168396 0.831604 0.0646606
170 2 0.168396 0.831604 0.0597222
277 2 0.20994 0.91963 0.189043
297 2 0.20994 0.914692 0.189043
401 2 0.168396 0.961174 0.0646606
405 2 0.168396 0.961174 0.0597222
421 2 0.168396 0.956236 0.0646606
425 2 0.168396 0.956236 0.0597222
502 2 0.0853081 0.91963 0.189043
522 2 0.0853081 0.914692 0.189043
602 2 0.0803697 0.91963 0.189043
622 2 0.0803697 0.914692 0.189043
641 2 0.0437643 0.831604 0.0646606
645 2 0.0437643 0.831604 0.0597222
741 2 0.0388259 0.831604 0.0646606
745 2 0.0388259 0.831604 0.0597222
792 1 0.209774 0.790226 0.189043
876 1 0.0439301 0.961008 0.0646606
880 1 0.0439301 0.961008 0.0597222
896 1 0.0439301 0.95607 0.0646606
900 1 0.0439301 0.95607 0.0597222
976 1 0.0389918 0.961008 0.0646606
980 1 0.0389918 0.961008 0.0597222
996 1 0.0389918 0.95607 0.0646606
1000 1 0.0389918 0.95607 0.0597222
42 2 0.334073 0.790061 0.189043
191 2 0.417161 0.831604 0.0646606
195 2 0.417161 0.831604 0.0597222
302 2 0.458705 0.91963 0.189043
322 2 0.458705 0.914692 0.189043
426 2 0.417161 0.961174 0.0646606
430 2 0.417161 0.961174 0.0597222
446 2 0.417161 0.956236 0.0646606
450 2 0.417161 0.956236 0.0597222
527 2 0.334073 0.91963 0.189043
547 2 0.334073 0.914692 0.189043
666 2 0.29253 0.831604 0.0646606
670 2 0.29253 0.831604 0.0597222
817 1 0.458539 0.790226 0.189043
901 1 0.292696 0.961008 0.0646606
905 1 0.292696 0.961008 0.0597222
921 1 0.292696 0.95607 0.0646606
925 1 0.292696 0.95607 0.0597222
67 2 0.582839 0.790061 0.189043
216 2 0.665927 0.831604 0.0646606
220 2 0.665927 0.831604 0.0597222
327 2 0.70747 0.91963 0.189043
347 2 0.70747 0.914692 0.189043
451 2 0.665927 0.961174 0.0646606
455 2 0.665927 0.961174 0.0597222
471 2 0.665927 0.956236 0.0646606
475 2 0.665927 0.956236 0.0597222
552 2 0.582839 0.91963 0.189043
572 2 0.582839 0.914692 0.189043
691 2 0.541295 0.831604 0.0646606
695 2 0.541295 0.831604 0.0597222
842 1 0.707305 0.790226 0.189043
926 1 0.541461 0.961008 0.0646606
930 1 0.541461 0.961008 0.0597222
946 1 0.541461 0.95607 0.0646606
950 1 0.541461 0.95607 0.0597222
92 2 0.831604 0.790061 0.189043
141 2 0.91963 0.831604 0.0646606
145 2 0.91963 0.831604 0.0597222
241 2 0.914692 0.831604 0.0646606
245 2 0.914692 0.831604 0.0597222
252 2 0.961174 0.91963 0.189043
272 2 0.961174 0.914692 0.189043
352 2 0.956236 0.91963 0.189043
372 2 0.956236 0.914692 0.189043
376 2 0.91963 0.961174 0.0646606
380 2 0.91963 0.961174 0.0597222
396 2 0.91963 0.956236 0.0646606
400 2 0.91963 0.956236 0.0597222
476 2 0.914692 0.961174 0.0646606
480 2 0.914692 0.961174 0.0597222
496 2 0.914692 0.956236 0.0646606
500 2 0.914692 0.956236 0.0597222
577 2 0.831604 0.91963 0.189043
597 2 0.831604 0.914692 0.189043
716 2 0.790061 0.831604 0.0646606
720 2 0.790061 0.831604 0.0597222
767 1 0.961008 0.790226 0.189043
867 1 0.95607 0.790226 0.189043
951 1 0.790226 0.961008 0.0646606
955 1 0.790226 0.961008 0.0597222
971 1 0.790226 0.95607 0.0646606
975 1 0.790226 0.95607 0.0597222
3 2 0.0853081 0.0437643 0.437809
23 2 0.0853081 0.0388259 0.437809
103 2 0.0803697 0.0437643 0.437809
123 2 0.0803697 0.0388259 0.437809
152 2 0.168396 0.0853081 0.313426
172 2 0.168396 0.0803697 0.313426
283 2 0.20994 0.168396 0.437809
407 2 0.168396 0.20994 0.313426
508 2 0.0853081 0.168396 0.437809
608 2 0.0803697 0.168396 0.437809
627 2 0.0437643 0.0853081 0.313426
647 2 0.0437643 0.0803697 0.313426
727 2 0.0388259 0.0853081 0.313426
747 2 0.0388259 0.0803697 0.313426
778 1 0.209774 0.0439301 0.437809
798 1 0.209774 0.0389918 0.437809
882 1 0.0439301 0.209774 0.313426
982 1 0.0389918 0.209774 0.313426
28 2 0.334073 0.0437643 0.437809
48 2 0.334073 0.0388259 0.437809
177 2 0.417161 0.0853081 0.313426
197 2 0.417161 0.0803697 0.313426
308 2 0.458705 0.168396 0.437809
432 2 0.417161 0.20994 0.313426
533 2 0.334073 0.168396 0.437809
652 2 0.29253 0.0853081 0.313426
672 2 0.29253 0.0803697 0.313426
803 1 0.458539 0.0439301 0.437809
823 1 0.458539 0.0389918 0.437809
907 1 0.292696 0.209774 0.313426
53 2 0.582839 0.0437643 0.437809
73 2 0.582839 0.0388259 0.437809
202 2 0.665927 0.0853081 0.313426
222 2 0.665927 0.0803697 0.313426
333 2 0.70747 0.168396 0.437809
457 2 0.665927 0.20994 0.313426
558 2 0.582839 0.168396 0.437809
677 2 0.541295 0.0853081 0.313426
697 2 0.541295 0.0803697 0.313426
828 1 0.707305 0.0439301 0.437809
848 1 0.707305 0.0389918 0.437809
932 1 0.541461 0.209774 0.313426
78 2 0.831604 0.0437643 0.437809
98 2 0.831604 0.0388259 0.437809
127 2 0.91963 0.0853081 0.313426
147 2 0.91963 0.0803697 0.313426
227 2 0.914692 0.0853081 0.313426
247 2 0.914692 0.0803697 0.313426
258 2 0.961174 0.168396 0.437809
358 2 0.956236 0.168396 0.437809
382 2 0.91963 0.20994 0.313426
482 2 0.914692 0.20994 0.313426
583 2 0.831604 0.168396 0.437809
702 2 0.790061 0.0853081 0.313426
722 2 0.790061 0.0803697 0.313426
753 1 0.961008 0.0439301 0.437809
773 1 0.961008 0.0389918 0.437809
853 1 0.95607 0.0439301 0.437809
873 1 0.95607 0.0389918 0.437809
957 1 0.790226 0.209774 0.313426
8 2 0.0853081 0.29253 0.437809
108 2 0.0803697 0.29253 0.437809
157 2 0.168396 0.334073 0.313426
288 2 0.20994 0.417161 0.437809
412 2 0.168396 0.458705 0.313426
513 2 0.0853081 0.417161 0.437809
613 2 0.0803697 0.417161 0.437809
632 2 0.0437643 0.334073 0.313426
732 2 0.0388259 0.334073 0.313426
783 1 0.209774 0.292696 0.437809
887 1 0.0439301 0.458539 0.313426
987 1 0.0389918 0.458539 0.313426
33 2 0.334073 0.29253 0.437809
182 2 0.417161 0.334073 0.313426
313 2 0.458705 0.417161 0.437809
437 2 0.417161 0.458705 0.313426
538 2 0.334073 0.417161 0.437809
657 2 0.29253 0.334073 0.313426
808 1 0.458539 0.292696 0.437809
912 1 0.292696 0.458539 0.313426
58 2 0.582839 0.29253 0.437809
207 2 0.665927 0.334073 0.313426
338 2 0.70747 0.417161 0.437809
462 2 0.665927 0.458705 0.313426
563 2 0.582839 0.417161 0.437809
682 2 0.541295 0.334073 0.313426
833 1 0.707305 0.292696 0.437809
937 1 0.541461 0.458539 0.313426
83 2 0.831604 0.29253 0.437809
132 2 0.91963 0.334073 0.313426
232 2 0.914692 0.334073 0.313426
263 2 0.961174 0.417161 0.437809
363 2 0.956236 0.417161 0.437809
387 2 0.91963 0.458705 0.313426
487 2 0.914692 0.458705 0.313426
588 2 0.831604 0.417161 0.437809
707 2 0.790061 0.334073 0.313426
758 1 0.961008 0.292696 0.437809
858 1 0.95607 0.292696 0.437809
962 1 0.790226 0.458539 0.313426
13 2 0.0853081 0.541295 0.437809
113 2 0.0803697 0.541295 0.437809
162 2 0.168396 0.582839 0.313426
293 2 0.20994 0.665927 0.437809
417 2 0.168396 0.70747 0.313426
518 2 0.0853081 0.665927 0.437809
618 2 0.0803697 0.665927 0.437809
637 2 0.0437643 0.582839 0.313426
737 2 0.0388259 0.582839 0.313426
788 1 0.209774 0.541461 0.437809
892 1 0.0439301 0.707305 0.313426
992 1 0.0389918 0.707305 0.313426
38 2 0.334073 0.541295 0.437809
187 2 0.417161 0.582839 0.313426
318 2 0.458705 0.665927 0.437809
442 2 0.417161 0.70747 0.313426
543 2 0.334073 0.665927 0.437809
662 2 0.29253 0.582839 0.313426
813 1 0.458539 0.541461 0.437809
917 1 0.292696 0.707305 0.313426
63 2 0.582839 0.541295 0.437809
212 2 0.665927 0.582839 0.313426
343 2 0.70747 0.665927 0.437809
467 2 0.665927 0.70747 0.313426
568 2 0.582839 0.665927 0.437809
687 2 0.541295 0.582839 0.313426
838 1 0.707305 0.541461 0.437809
942 1 0.541461 0.707305 0.313426
88 2 0.831604 0.541295 0.437809
137 2 0.91963 0.582839 0.313426
237 2 0.914692 0.582839 0.313426
268 2 0.961174 0.665927 0.437809
368 2 0.956236 0.665927 0.437809
392 2 0.91963 0.70747 0.313426
492 2 0.914692 0.70747 0.313426
593 2 0.831604 0.665927 0.437809
712 2 0.790061 0.582839 0.313426
763 1 0.961008 0.541461 0.437809
863 1 0.95607 0.541461 0.437809
967 1 0.790226 0.707305 0.313426
18 2 0.0853081 0.790061 0.437809
118 2 0.0803697 0.790061 0.437809
167 2 0.168396 0.831604 0.313426
278 2 0.20994 0.91963 0.437809
298 2 0.20994 0.914692 0.437809
402 2 0.168396 0.961174 0.313426
422 2 0.168396 0.956236 0.313426
503 2 0.0853081 0.91963 0.437809
523 2 0.0853081 0.914692 0.437809
603 2 0.0803697 0.91963 0.437809
623 2 0.0803697 0.914692 0.437809
642 2 0.0437643 0.831604 0.313426
742 2 0.0388259 0.831604 0.313426
793 1 0.209774 0.790226 0.437809
877 1 0.0439301 0.961008 0.313426
897 1 0.0439301 0.95607 0.313426
977 1 0.0389918 0.961008 0.313426
997 1 0.0389918 0.95607 0.313426
43 2 0.334073 0.790061 0.437809
192 2 0.417161 0.831604 0.313426
303 2 0.458705 0.91963 0.437809
323 2 0.458705 0.914692 0.437809
427 2 0.417161 0.961174 0.313426
447 2 0.417161 0.956236 0.313426
528 2 0.334073 0.91963 0.437809
548 2 0.334073 0.914692 0.437809
667 2 0.29253 0.831604 0.313426
818 1 0.458539 0.790226 0.437809
902 1 0.292696 0.961008 0.313426
922 1 0.292696 0.95607 0.313426
68 2 0.582839 0.790061 0.437809
217 2 0.665927 0.831604 0.313426
328 2 0.70747 0.91963 0.437809
348 2 0.70747 0.914692 0.437809
452 2 0.665927 0.961174 0.313426
472 2 0.665927 0.956236 0.313426
553 2 0.582839 0.91963 0.437809
573 2 0.582839 0.914692 0.437809
692 2 0.541295 0.831604 0.313426
843 1 0.707305 0.790226 0.437809
927 1 0.541461 0.961008 0.313426
947 1 0.541461 0.95607 0.313426
93 2 0.831604 0.790061 0.437809
142 2 0.91963 0.831604 0.313426
242 2 0.914692 0.831604 0.313426
253 2 0.961174 0.91963 0.437809
273 2 0.961174 0.914692 0.437809
353 2 0.956236 0.91963 0.437809
373 2 0.956236 0.914692 0.437809
377 2 0.91963 0.961174 0.313426
397 2 0.91963 0.956236 0.313426
477 2 0.914692 0.961174 0.313426
497 2 0.914692 0.956236 0.313426
578 2 0.831604 0.91963 0.437809
598 2 0.831604 0.914692 0.437809
717 2 0.790061 0.831604 0.313426
768 1 0.961008 0.790226 0.437809
868 1 0.95607 0.790226 0.437809
952 1 0.790226 0.961008 0.313426
972 1 0.790226 0.95607 0.313426
4 2 0.0853081 0.0437643 0.686574
24 2 0.0853081 0.0388259 0.686574
104 2 0.0803697 0.0437643 0.686574
124 2 0.0803697 0.0388259 0.686574
153 2 0.168396 0.0853081 0.562191
173 2 0.168396 0.0803697 0.562191
284 2 0.20994 0.168396 0.686574
408 2 0.168396 0.20994 0.562191
509 2 0.0853081 0.168396 0.686574
609 2 0.0803697 0.168396 0.686574
628 2 0.0437643 0.0853081 0.562191
648 2 0.0437643 0.0803697 0.562191
728 2 0.0388259 0.0853081 0.562191
748 2 0.0388259 0.0803697 0.562191
779 1 0.209774 0.0439301 0.686574
799 1 0.209774 0.0389918 0.686574
883 1 0.0439301 0.209774 0.562191
983 1 0.0389918 0.209774 0.562191
29 2 0.334073 0.0437643 0.686574
49 2 0.334073 0.0388259 0.686574
178 2 0.417161 0.0853081 0.562191
198 2 0.417161 0.0803697 0.562191
309 2 0.458705 0.168396 0.686574
433 2 0.417161 0.20994 0.562191
534 2 0.334073 0.168396 0.686574
653 2 0.29253 0.0853081 0.562191
673 2 0.29253 0.0803697 0.562191
804 1 0.458539 0.0439301 0.686574
824 1 0.458539 0.0389918 0.686574
908 1 0.292696 0.209774 0.562191
54 2 0.582839 0.0437643 0.686574
74 2 0.582839 0.0388259 0.686574
203 2 0.665927 0.0853081 0.562191
223 2 0.665927 0.0803697 0.562191
334 2 0.70747 0.168396 0.686574
458 2 0.665927 0.20994 0.562191
559 2 0.582839 0.168396 0.686574
678 2 0.541295 0.0853081 0.562191
698 2 0.541295 0.0803697 0.562191
829 1 0.707305 0.0439301 0.686574
849 1 0.707305 0.0389918 0.686574
933 1 0.541461 0.209774 0.562191
79 2 0.831604 0.0437643 0.686574
99 2 0.831604 0.0388259 0.686574
128 2 0.91963 0.0853081 0.562191
148 2 0.91963 0.0803697 0.562191
228 2 0.914692 0.0853081 0.562191
248 2 0.914692 0.0803697 0.562191
259 2 0.961174 0.168396 0.686574
359 2 0.956236 0.168396 0.686574
383 2 0.91963 0.20994 0.562191
483 2 0.914692 0.20994 0.562191
584 2 0.831604 0.168396 0.686574
703 2 0.790061 0.0853081 0.562191
723 2 0.790061 0.0803697 0.562191
754 1 0.961008 0.0439301 0.686574
774 1 0.961008 0.0389918 0.686574
854 1 0.95607 0.0439301 0.686574
874 1 0.95607 0.0389918 0.686574
958 1 0.790226 0.209774 0.562191
9 2 0.0853081 0.29253 0.686574
109 2 0.0803697 0.29253 0.686574
158 2 0.168396 0.334073 0.562191
289 2 0.20994 0.417161 0.686574
413 2 0.168396 0.458705 0.562191
514 2 0.0853081 0.417161 0.686574
614 2 0.0803697 0.417161 0.686574
633 2 0.0437643 0.334073 0.562191
733 2 0.0388259 0.334073 0.562191
784 1 0.209774 0.292696 0.686574
888 1 0.0439301 0.458539 0.562191
988 1 0.0389918 0.458539 0.562191
34 2 0.334073 0.29253 0.686574
183 2 0.417161 0.334073 0.562191
314 2 0.458705 0.417161 0.686574
438 2 0.417161 0.458705 0.562191
539 2 0.334073 0.417161 0.686574
658 2 0.29253 0.334073 0.562191
809 1 0.458539 0.292696 0.686574
913 1 0.292696 0.458539 0.562191
59 2 0.582839 0.29253 0.686574
208 2 0.665927 0.334073 0.562191
339 2 0.70747 0.417161 0.686574
463 2 0.665927 0.458705 0.562191
564 2 0.582839 0.417161 0.686574
683 2 0.541295 0.334073 0.562191
834 1 0.707305 0.292696 0.686574
938 1 0.541461 0.458539 0.562191
84 2 0.831604 0.29253 0.686574
133 2 0.91963 0.334073 0.562191
233 2 0.914692 0.334073 0.562191
264 2 0.961174 0.417161 0.686574
364 2 0.956236 0.417161 0.686574
388 2 0.91963 0.458705 0.562191
488 2 0.914692 0.458705 0.562191
589 2 0.831604 0.417161 0.686574
708 2 0.790061 0.334073 0.562191
759 1 0.961008 0.292696 0.686574
859 1 0.95607 0.292696 0.686574
963 1 0.790226 0.458539 0.562191
14 2 0.0853081 0.541295 0.686574
114 2 0.0803697 0.541295 0.686574
163 2 0.168396 0.582839 0.562191
294 2 0.20994 0.665927 0.686574
418 2 0.168396 0.70747 0.562191
519 2 0.0853081 0.665927 0.686574
619 2 0.0803697 0.665927 0.686574
638 2 0.0437643 0.582839 0.562191
738 2 0.0388259 0.582839 0.562191
789 1 0.209774 0.541461 0.686574
893 1 0.0439301 0.707305 0.562191
993 1 0.0389918 0.707305 0.562191
39 2 0.334073 0.541295 0.686574
188 2 0.417161 0.582839 0.562191
319 2 0.458705 0.665927 0.686574
443 2 0.417161 0.70747 0.562191
544 2 0.334073 0.665927 0.686574
663 2 0.29253 0.582839 0.562191
814 1 0.458539 0.541461 0.686574
918 1 0.292696 0.707305 0.562191
64 2 0.582839 0.541295 0.686574
213 2 0.665927 0.582839 0.562191
344 2 0.70747 0.665927 0.686574
468 2 0.665927 0.70747 0.562191
569 2 0.582839 0.665927 0.686574
688 2 0.541295 0.582839 0.562191
839 1 0.707305 0.541461 0.686574
943 1 0.541461 0.707305 0.562191
89 2 0.831604 0.541295 0.686574
138 2 0.91963 0.582839 0.562191
238 2 0.914692 0.582839 0.562191
269 2 0.961174 0.665927 0.686574
369 2 0.956236 0.665927 0.686574
393 2 0.91963 0.70747 0.562191
493 2 0.914692 0.70747 0.562191
594 2 0.831604 0.665927 0.686574
713 2 0.790061 0.582839 0.562191
764 1 0.961008 0.541461 0.686574
864 1 0.95607 0.541461 0.686574
968 1 0.790226 0.707305 0.562191
19 2 0.0853081 0.790061 0.686574
119 2 0.0803697 0.790061 0.686574
168 2 0.168396 0.831604 0.562191
279 2 0.20994 0.91963 0.686574
299 2 0.20994 0.914692 0.686574
403 2 0.168396 0.961174 0.562191
423 2 0.168396 0.956236 0.562191
504 2 0.0853081 0.91963 0.686574
524 2 0.0853081 0.914692 0.686574
604 2 0.0803697 0.91963 0.686574
624 2 0.0803697 0.914692 0.686574
643 2 0.0437643 0.831604 0.562191
743 2 0.0388259 0.831604 0.562191
794 1 0.209774 0.790226 0.686574
878 1 0.0439301 0.961008 0.562191
898 1 0.0439301 0.95607 0.562191
978 1 0.0389918 0.961008 0.562191
998 1 0.0389918 0.95607 0.562191
44 2 0.334073 0.790061 0.686574
193 2 0.417161 0.831604 0.562191
304 2 0.458705 0.91963 0.686574
324 2 0.458705 0.914692 0.686574
428 2 0.417161 0.961174 0.562191
448 2 0.417161 0.956236 0.562191
529 2 0.334073 0.91963 0.686574
549 2 0.334073 0.914692 0.686574
668 2 0.29253 0.831604 0.562191
819 1 0.458539 0.790226 0.686574
903 1 0.292696 0.961008 0.562191
923 1 0.292696 0.95607 0.562191
69 2 0.582839 0.790061 0.686574
218 2 0.665927 0.831604 0.562191
329 2 0.70747 0.91963 0.686574
349 2 0.70747 0.914692 0.686574
453 2 0.665927 0.961174 0.562191
473 2 0.665927 0.956236 0.562191
554 2 0.582839 0.91963 0.686574
574 2 0.582839 0.914692 0.686574
693 2 0.541295 0.831604 0.562191
844 1 0.707305 0.790226 0.686574
928 1 0.541461 0.961008 0.562191
948 1 0.541461 0.95607 0.562191
94 2 0.831604 0.790061 0.686574
143 2 0.91963 0.831604 0.562191
243 2 0.914692 0.831604 0.562191
254 2 0.961174 0.91963 0.686574
274 2 0.961174 0.914692 0.686574
354 2 0.956236 0.91963 0.686574
374 2 0.956236 0.914692 0.686574
378 2 0.91963 0.961174 0.562191
398 2 0.91963 0.956236 0.562191
478 2 0.914692 0.961174 0.562191
498 2 0.914692 0.956236 0.562191
579 2 0.831604 0.91963 0.686574
599 2 0.831604 0.914692 0.686574
718 2 0.790061 0.831604 0.562191
769 1 0.961008 0.790226 0.686574
869 1 0.95607 0.790226 0.686574
953 1 0.790226 0.961008 0.562191
973 1 0.790226 0.95607 0.562191
1 2 0.0853081 0.0437643 0.940278
5 2 0.0853081 0.0437643 0.93534
21 2 0.0853081 0.0388259 0.940278
25 2 0.0853081 0.0388259 0.93534
101 2 0.0803697 0.0437643 0.940278
105 2 0.0803697 0.0437643 0.93534
121 2 0.0803697 0.0388259 0.940278
125 2 0.0803697 0.0388259 0.93534
154 2 0.168396 0.0853081 0.810957
174 2 0.168396 0.0803697 0.810957
281 2 0.20994 0.168396 0.940278
285 2 0.20994 0.168396 0.93534
409 2 0.168396 0.20994 0.810957
506 2 0.0853081 0.168396 0.940278
510 2 0.0853081 0.168396 0.93534
606 2 0.0803697 0.168396 0.940278
610 2 0.0803697 0.168396 0.93534
629 2 0.0437643 0.0853081 0.810957
649 2 0.0437643 0.0803697 0.810957
729 2 0.0388259 0.0853081 0.810957
749 2 0.0388259 0.0803697 0.810957
776 1 0.209774 0.0439301 0.940278
780 1 0.209774 0.0439301 0.93534
796 1 0.209774 0.0389918 0.940278
800 1 0.209774 0.0389918 0.93534
884 1 0.0439301 0.209774 0.810957
984 1 0.0389918 0.209774 0.810957
26 2 0.334073 0.0437643 0.940278
30 2 0.334073 0.0437643 0.93534
46 2 0.334073 0.0388259 0.940278
50 2 0.334073 0.0388259 0.93534
179 2 0.417161 0.0853081 0.810957
199 2 0.417161 0.0803697 0.810957
306 2 0.458705 0.168396 0.940278
310 2 0.458705 0.168396 0.93534
434 2 0.417161 0.20994 0.810957
531 2 0.334073 0.168396 0.940278
535 2 0.334073 0.168396 0.93534
654 2 0.29253 0.0853081 0.810957
674 2 0.29253 0.0803697 0.810957
801 1 0.458539 0.0439301 0.940278
805 1 0.458539 0.0439301 0.93534
821 1 0.458539 0.0389918 0.940278
825 1 0.458539 0.0389918 0.93534
909 1 0.292696 0.209774 0.810957
51 2 0.582839 0.0437643 0.940278
55 2 0.582839 0.0437643 0.93534
71 2 0.582839 0.0388259 0.940278
75 2 0.582839 0.0388259 0.93534
204 2 0.665927 0.0853081 0.810957
224 2 0.665927 0.0803697 0.810957
331 2 0.70747 0.168396 0.940278
335 2 0.70747 0.168396 0.93534
459 2 0.665927 0.20994 0.810957
556 2 0.582839 0.168396 0.940278
560 2 0.582839 0.168396 0.93534
679 2 0.541295 0.0853081 0.810957
699 2 0.541295 0.0803697 0.810957
826 1 0.707305 0.0439301 0.940278
830 1 0.707305 0.0439301 0.93534
846 1 0.707305 0.0389918 0.940278
850 1 0.707305 0.0389918 0.93534
934 1 0.541461 0.209774 0.810957
76 2 0.831604 0.0437643 0.940278
80 2 0.831604 0.0437643 0.93534
96 2 0.831604 0.0388259 0.940278
100 2 0.831604 0.0388259 0.93534
129 2 0.91963 0.0853081 0.810957
149 2 0.91963 0.0803697 0.810957
229 2 0.914692 0.0853081 0.810957
249 2 0.914692 0.0803697 0.810957
256 2 0.961174 0.168396 0.940278
260 2 0.961174 0.168396 0.93534
356 2 0.956236 0.168396 0.940278
360 2 0.956236 0.168396 0.93534
384 2 0.91963 0.20994 0.810957
484 2 0.914692 0.20994 0.810957
581 2 0.831604 0.168396 0.940278
585 2 0.831604 0.168396 0.93534
704 2 0.790061 0.0853081 0.810957
724 2 0.790061 0.0803697 0.810957
751 1 0.961008 0.0439301 0.940278
755 1 0.961008 0.0439301 0.93534
771 1 0.961008 0.0389918 0.940278
775 1 0.961008 0.0389918 0.93534
851 1 0.95607 0.0439301 0.940278
855 1 0.95607 0.0439301 0.93534
871 1 0.95607 0.0389918 0.940278
875 1 0.95607 0.0389918 0.93534
959 1 0.790226 0.209774 0.810957
6 2 0.0853081 0.29253 0.940278
10 2 0.0853081 0.29253 0.93534
106 2 0.0803697 0.29253 0.940278
110 2 0.0803697 0.29253 0.93534
159 2 0.168396 0.334073 0.810957
286 2 0.20994 0.417161 0.940278
290 2 0.20994 0.417161 0.93534
414 2 0.168396 0.458705 0.810957
511 2 0.0853081 0.417161 0.940278
515 2 0.0853081 0.417161 0.93534
611 2 0.0803697 0.417161 0.940278
615 2 0.0803697 0.417161 0.93534
634 2 0.0437643 0.334073 0.810957
734 2 0.0388259 0.334073 0.810957
781 1 0.209774 0.292696 0.940278
785 1 0.209774 0.292696 0.93534
889 1 0.0439301 0.458539 0.810957
989 1 0.0389918 0.458539 0.810957
31 2 0.334073 0.29253 0.940278
35 2 0.334073 0.29253 0.93534
184 2 0.417161 0.334073 0.810957
311 2 0.458705 0.417161 0.940278
315 2 0.458705 0.417161 0.93534
439 2 0.417161 0.458705 0.810957
536 2 0.334073 0.417161 0.940278
540 2 0.334073 0.417161 0.93534
659 2 0.29253 0.334073 0.810957
806 1 0.458539 0.292696 0.940278
810 1 0.458539 0.292696 0.93534
914 1 0.292696 0.458539 0.810957
56 2 0.582839 0.29253 0.940278
60 2 0.582839 0.29253 0.93534
209 2 0.665927 0.334073 0.810957
336 2 0.70747 0.417161 0.940278
340 2 0.70747 0.417161 0.93534
464 2 0.665927 0.458705 0.810957
561 2 0.582839 0.417161 0.940278
565 2 0.582839 0.417161 0.93534
684 2 0.541295 0.334073 0.810957
831 1 0.707305 0.292696 0.940278
835 1 0.707305 0.292696 0.93534
939 1 0.541461 0.458539 0.810957
81 2 0.831604 0.29253 0.940278
85 2 0.831604 0.29253 0.93534
134 2 0.91963 0.334073 0.810957
234 2 0.914692 0.334073 0.810957
261 2 0.961174 0.417161 0.940278
265 2 0.961174 0.417161 0.93534
361 2 0.956236 0.417161 0.940278
365 2 0.956236 0.417161 0.93534
389 2 0.91963 0.458705 0.810957
489 2 0.914692 0.458705 0.810957
586 2 0.831604 0.417161 0.940278
590 2 0.831604 0.417161 0.93534
709 2 0.790061 0.334073 0.810957
756 1 0.961008 0.292696 0.940278
760 1 0.961008 0.292696 0.93534
856 1 0.95607 0.292696 0.940278
860 1 0.95607 0.292696 0.93534
964 1 0.790226 0.458539 0.810957
11 2 0.0853081 0.541295 0.940278
15 2 0.0853081 0.541295 0.93534
111 2 0.0803697 0.541295 0.940278
115 2 0.0803697 0.541295 0.93534
164 2 0.168396 0.582839 0.810957
291 2 0.20994 0.665927 0.940278
295 2 0.20994 0.665927 0.93534
419 2 0.168396 0.70747 0.810957
516 2 0.0853081 0.665927 0.940278
520 2 0.0853081 0.665927 0.93534
616 2 0.0803697 0.665927 0.940278
620 2 0.0803697 0.665927 0.93534
639 2 0.0437643 0.582839 0.810957
739 2 0.0388259 0.582839 0.810957
786 1 0.209774 0.541461 0.940278
790 1 0.209774 0.541461 0.93534
894 1 0.0439301 0.707305 0.810957
994 1 0.0389918 0.707305 0.810957
36 2 0.334073 0.541295 0.940278
40 2 0.334073 0.541295 0.93534
189 2 0.417161 0.582839 0.810957
316 2 0.458705 0.665927 0.940278
320 2 0.458705 0.665927 0.93534
444 2 0.417161 0.70747 0.810957
541 2 0.334073 0.665927 0.940278
545 2 0.334073 0.665927 0.93534
664 2 0.29253 0.582839 0.810957
811 1 0.458539 0.541461 0.940278
815 1 0.458539 0.541461 0.93534
919 1 0.292696 0.707305 0.810957
61 2 0.582839 0.541295 0.940278
65 2 0.582839 0.541295 0.93534
214 2 0.665927 0.582839 0.810957
341 2 0.70747 0.665927 0.940278
345 2 0.70747 0.665927 0.93534
469 2 0.665927 0.70747 0.810957
566 2 0.582839 0.665927 0.940278
570 2 0.582839 0.665927 0.93534
689 2 0.541295 0.582839 0.810957
836 1 0.707305 0.541461 0.940278
840 1 0.707305 0.541461 0.93534
944 1 0.541461 0.707305 0.810957
86 2 0.831604 0.541295 0.940278
90 2 0.831604 0.541295 0.93534
139 2 0.91963 0.582839 0.810957
239 2 0.914692 0.582839 0.810957
266 2 0.961174 0.665927 0.940278