LAMMPS data file. CGCMM style. atom_style full generated by VMD/TopoTools v1.5 on Thu Dec 18 14:06:05 MSK 2025
 1000 atoms
 2700 bonds
 0 angles
 0 dihedrals
 0 impropers
 2 atom types
 1 bond types
 0 angle types
 0 dihedral types
 0 improper types
 1.974999 18.175000  xlo xhi
 1.974999 18.175000  ylo yhi
 1.974999 18.175000  zlo zhi

# Pair Coeffs
#
# 1  Co
# 2  Ta

# Bond Coeffs
#
# 1  

 Masses

 1 58.933201 # Co
 2 180.947906 # Ta

 Atoms

1 1 2 0.000000 3.356990 2.683980 1.007500 # Ta 
2 1 2 0.000000 3.356990 2.683980 5.037500 # Ta 
3 1 2 0.000000 3.356990 2.683980 9.067500 # Ta 
4 1 2 0.000000 3.356990 2.683980 13.097500 # Ta 
5 1 2 0.000000 3.356990 2.683980 17.127501 # Ta 
6 1 2 0.000000 3.356990 6.713980 1.007500 # Ta 
7 1 2 0.000000 3.356990 6.713980 5.037500 # Ta 
8 1 2 0.000000 3.356990 6.713980 9.067500 # Ta 
9 1 2 0.000000 3.356990 6.713980 13.097500 # Ta 
10 1 2 0.000000 3.356990 6.713980 17.127501 # Ta 
11 1 2 0.000000 3.356990 10.743980 1.007500 # Ta 
12 1 2 0.000000 3.356990 10.743980 5.037500 # Ta 
13 1 2 0.000000 3.356990 10.743980 9.067500 # Ta 
14 1 2 0.000000 3.356990 10.743980 13.097500 # Ta 
15 1 2 0.000000 3.356990 10.743980 17.127501 # Ta 
16 1 2 0.000000 3.356990 14.773980 1.007500 # Ta 
17 1 2 0.000000 3.356990 14.773980 5.037500 # Ta 
18 1 2 0.000000 3.356990 14.773980 9.067500 # Ta 
19 1 2 0.000000 3.356990 14.773980 13.097500 # Ta 
20 1 2 0.000000 3.356990 14.773980 17.127501 # Ta 
21 1 2 0.000000 3.356990 18.803980 1.007500 # Ta 
22 1 2 0.000000 3.356990 18.803980 5.037500 # Ta 
23 1 2 0.000000 3.356990 18.803980 9.067500 # Ta 
24 1 2 0.000000 3.356990 18.803980 13.097500 # Ta 
25 1 2 0.000000 3.356990 18.803980 17.127501 # Ta 
26 1 2 0.000000 7.386990 2.683980 1.007500 # Ta 
27 1 2 0.000000 7.386990 2.683980 5.037500 # Ta 
28 1 2 0.000000 7.386990 2.683980 9.067500 # Ta 
29 1 2 0.000000 7.386990 2.683980 13.097500 # Ta 
30 1 2 0.000000 7.386990 2.683980 17.127501 # Ta 
31 1 2 0.000000 7.386990 6.713980 1.007500 # Ta 
32 1 2 0.000000 7.386990 6.713980 5.037500 # Ta 
33 1 2 0.000000 7.386990 6.713980 9.067500 # Ta 
34 1 2 0.000000 7.386990 6.713980 13.097500 # Ta 
35 1 2 0.000000 7.386990 6.713980 17.127501 # Ta 
36 1 2 0.000000 7.386990 10.743980 1.007500 # Ta 
37 1 2 0.000000 7.386990 10.743980 5.037500 # Ta 
38 1 2 0.000000 7.386990 10.743980 9.067500 # Ta 
39 1 2 0.000000 7.386990 10.743980 13.097500 # Ta 
40 1 2 0.000000 7.386990 10.743980 17.127501 # Ta 
41 1 2 0.000000 7.386990 14.773980 1.007500 # Ta 
42 1 2 0.000000 7.386990 14.773980 5.037500 # Ta 
43 1 2 0.000000 7.386990 14.773980 9.067500 # Ta 
44 1 2 0.000000 7.386990 14.773980 13.097500 # Ta 
45 1 2 0.000000 7.386990 14.773980 17.127501 # Ta 
46 1 2 0.000000 7.386990 18.803980 1.007500 # Ta 
47 1 2 0.000000 7.386990 18.803980 5.037500 # Ta 
48 1 2 0.000000 7.386990 18.803980 9.067500 # Ta 
49 1 2 0.000000 7.386990 18.803980 13.097500 # Ta 
50 1 2 0.000000 7.386990 18.803980 17.127501 # Ta 
51 1 2 0.000000 11.416990 2.683980 1.007500 # Ta 
52 1 2 0.000000 11.416990 2.683980 5.037500 # Ta 
53 1 2 0.000000 11.416990 2.683980 9.067500 # Ta 
54 1 2 0.000000 11.416990 2.683980 13.097500 # Ta 
55 1 2 0.000000 11.416990 2.683980 17.127501 # Ta 
56 1 2 0.000000 11.416990 6.713980 1.007500 # Ta 
57 1 2 0.000000 11.416990 6.713980 5.037500 # Ta 
58 1 2 0.000000 11.416990 6.713980 9.067500 # Ta 
59 1 2 0.000000 11.416990 6.713980 13.097500 # Ta 
60 1 2 0.000000 11.416990 6.713980 17.127501 # Ta 
61 1 2 0.000000 11.416990 10.743980 1.007500 # Ta 
62 1 2 0.000000 11.416990 10.743980 5.037500 # Ta 
63 1 2 0.000000 11.416990 10.743980 9.067500 # Ta 
64 1 2 0.000000 11.416990 10.743980 13.097500 # Ta 
65 1 2 0.000000 11.416990 10.743980 17.127501 # Ta 
66 1 2 0.000000 11.416990 14.773980 1.007500 # Ta 
67 1 2 0.000000 11.416990 14.773980 5.037500 # Ta 
68 1 2 0.000000 11.416990 14.773980 9.067500 # Ta 
69 1 2 0.000000 11.416990 14.773980 13.097500 # Ta 
70 1 2 0.000000 11.416990 14.773980 17.127501 # Ta 
71 1 2 0.000000 11.416990 18.803980 1.007500 # Ta 
72 1 2 0.000000 11.416990 18.803980 5.037500 # Ta 
73 1 2 0.000000 11.416990 18.803980 9.067500 # Ta 
74 1 2 0.000000 11.416990 18.803980 13.097500 # Ta 
75 1 2 0.000000 11.416990 18.803980 17.127501 # Ta 
76 1 2 0.000000 15.446990 2.683980 1.007500 # Ta 
77 1 2 0.000000 15.446990 2.683980 5.037500 # Ta 
78 1 2 0.000000 15.446990 2.683980 9.067500 # Ta 
79 1 2 0.000000 15.446990 2.683980 13.097500 # Ta 
80 1 2 0.000000 15.446990 2.683980 17.127501 # Ta 
81 1 2 0.000000 15.446990 6.713980 1.007500 # Ta 
82 1 2 0.000000 15.446990 6.713980 5.037500 # Ta 
83 1 2 0.000000 15.446990 6.713980 9.067500 # Ta 
84 1 2 0.000000 15.446990 6.713980 13.097500 # Ta 
85 1 2 0.000000 15.446990 6.713980 17.127501 # Ta 
86 1 2 0.000000 15.446990 10.743980 1.007500 # Ta 
87 1 2 0.000000 15.446990 10.743980 5.037500 # Ta 
88 1 2 0.000000 15.446990 10.743980 9.067500 # Ta 
89 1 2 0.000000 15.446990 10.743980 13.097500 # Ta 
90 1 2 0.000000 15.446990 10.743980 17.127501 # Ta 
91 1 2 0.000000 15.446990 14.773980 1.007500 # Ta 
92 1 2 0.000000 15.446990 14.773980 5.037500 # Ta 
93 1 2 0.000000 15.446990 14.773980 9.067500 # Ta 
94 1 2 0.000000 15.446990 14.773980 13.097500 # Ta 
95 1 2 0.000000 15.446990 14.773980 17.127501 # Ta 
96 1 2 0.000000 15.446990 18.803980 1.007500 # Ta 
97 1 2 0.000000 15.446990 18.803980 5.037500 # Ta 
98 1 2 0.000000 15.446990 18.803980 9.067500 # Ta 
99 1 2 0.000000 15.446990 18.803980 13.097500 # Ta 
100 1 2 0.000000 15.446990 18.803980 17.127501 # Ta 
101 1 2 0.000000 19.476990 2.683980 1.007500 # Ta 
102 1 2 0.000000 19.476990 2.683980 5.037500 # Ta 
103 1 2 0.000000 19.476990 2.683980 9.067500 # Ta 
104 1 2 0.000000 19.476990 2.683980 13.097500 # Ta 
105 1 2 0.000000 19.476990 2.683980 17.127501 # Ta 
106 1 2 0.000000 19.476990 6.713980 1.007500 # Ta 
107 1 2 0.000000 19.476990 6.713980 5.037500 # Ta 
108 1 2 0.000000 19.476990 6.713980 9.067500 # Ta 
109 1 2 0.000000 19.476990 6.713980 13.097500 # Ta 
110 1 2 0.000000 19.476990 6.713980 17.127501 # Ta 
111 1 2 0.000000 19.476990 10.743980 1.007500 # Ta 
112 1 2 0.000000 19.476990 10.743980 5.037500 # Ta 
113 1 2 0.000000 19.476990 10.743980 9.067500 # Ta 
114 1 2 0.000000 19.476990 10.743980 13.097500 # Ta 
115 1 2 0.000000 19.476990 10.743980 17.127501 # Ta 
116 1 2 0.000000 19.476990 14.773980 1.007500 # Ta 
117 1 2 0.000000 19.476990 14.773980 5.037500 # Ta 
118 1 2 0.000000 19.476990 14.773980 9.067500 # Ta 
119 1 2 0.000000 19.476990 14.773980 13.097500 # Ta 
120 1 2 0.000000 19.476990 14.773980 17.127501 # Ta 
121 1 2 0.000000 19.476990 18.803980 1.007500 # Ta 
122 1 2 0.000000 19.476990 18.803980 5.037500 # Ta 
123 1 2 0.000000 19.476990 18.803980 9.067500 # Ta 
124 1 2 0.000000 19.476990 18.803980 13.097500 # Ta 
125 1 2 0.000000 19.476990 18.803980 17.127501 # Ta 
126 1 2 0.000000 0.673010 3.356990 3.022500 # Ta 
127 1 2 0.000000 0.673010 3.356990 7.052500 # Ta 
128 1 2 0.000000 0.673010 3.356990 11.082500 # Ta 
129 1 2 0.000000 0.673010 3.356990 15.112500 # Ta 
130 1 2 0.000000 0.673010 3.356990 19.142500 # Ta 
131 1 2 0.000000 0.673010 7.386990 3.022500 # Ta 
132 1 2 0.000000 0.673010 7.386990 7.052500 # Ta 
133 1 2 0.000000 0.673010 7.386990 11.082500 # Ta 
134 1 2 0.000000 0.673010 7.386990 15.112500 # Ta 
135 1 2 0.000000 0.673010 7.386990 19.142500 # Ta 
136 1 2 0.000000 0.673010 11.416990 3.022500 # Ta 
137 1 2 0.000000 0.673010 11.416990 7.052500 # Ta 
138 1 2 0.000000 0.673010 11.416990 11.082500 # Ta 
139 1 2 0.000000 0.673010 11.416990 15.112500 # Ta 
140 1 2 0.000000 0.673010 11.416990 19.142500 # Ta 
141 1 2 0.000000 0.673010 15.446990 3.022500 # Ta 
142 1 2 0.000000 0.673010 15.446990 7.052500 # Ta 
143 1 2 0.000000 0.673010 15.446990 11.082500 # Ta 
144 1 2 0.000000 0.673010 15.446990 15.112500 # Ta 
145 1 2 0.000000 0.673010 15.446990 19.142500 # Ta 
146 1 2 0.000000 0.673010 19.476990 3.022500 # Ta 
147 1 2 0.000000 0.673010 19.476990 7.052500 # Ta 
148 1 2 0.000000 0.673010 19.476990 11.082500 # Ta 
149 1 2 0.000000 0.673010 19.476990 15.112500 # Ta 
150 1 2 0.000000 0.673010 19.476990 19.142500 # Ta 
151 1 2 0.000000 4.703010 3.356990 3.022500 # Ta 
152 1 2 0.000000 4.703010 3.356990 7.052500 # Ta 
153 1 2 0.000000 4.703010 3.356990 11.082500 # Ta 
154 1 2 0.000000 4.703010 3.356990 15.112500 # Ta 
155 1 2 0.000000 4.703010 3.356990 19.142500 # Ta 
156 1 2 0.000000 4.703010 7.386990 3.022500 # Ta 
157 1 2 0.000000 4.703010 7.386990 7.052500 # Ta 
158 1 2 0.000000 4.703010 7.386990 11.082500 # Ta 
159 1 2 0.000000 4.703010 7.386990 15.112500 # Ta 
160 1 2 0.000000 4.703010 7.386990 19.142500 # Ta 
161 1 2 0.000000 4.703010 11.416990 3.022500 # Ta 
162 1 2 0.000000 4.703010 11.416990 7.052500 # Ta 
163 1 2 0.000000 4.703010 11.416990 11.082500 # Ta 
164 1 2 0.000000 4.703010 11.416990 15.112500 # Ta 
165 1 2 0.000000 4.703010 11.416990 19.142500 # Ta 
166 1 2 0.000000 4.703010 15.446990 3.022500 # Ta 
167 1 2 0.000000 4.703010 15.446990 7.052500 # Ta 
168 1 2 0.000000 4.703010 15.446990 11.082500 # Ta 
169 1 2 0.000000 4.703010 15.446990 15.112500 # Ta 
170 1 2 0.000000 4.703010 15.446990 19.142500 # Ta 
171 1 2 0.000000 4.703010 19.476990 3.022500 # Ta 
172 1 2 0.000000 4.703010 19.476990 7.052500 # Ta 
173 1 2 0.000000 4.703010 19.476990 11.082500 # Ta 
174 1 2 0.000000 4.703010 19.476990 15.112500 # Ta 
175 1 2 0.000000 4.703010 19.476990 19.142500 # Ta 
176 1 2 0.000000 8.733010 3.356990 3.022500 # Ta 
177 1 2 0.000000 8.733010 3.356990 7.052500 # Ta 
178 1 2 0.000000 8.733010 3.356990 11.082500 # Ta 
179 1 2 0.000000 8.733010 3.356990 15.112500 # Ta 
180 1 2 0.000000 8.733010 3.356990 19.142500 # Ta 
181 1 2 0.000000 8.733010 7.386990 3.022500 # Ta 
182 1 2 0.000000 8.733010 7.386990 7.052500 # Ta 
183 1 2 0.000000 8.733010 7.386990 11.082500 # Ta 
184 1 2 0.000000 8.733010 7.386990 15.112500 # Ta 
185 1 2 0.000000 8.733010 7.386990 19.142500 # Ta 
186 1 2 0.000000 8.733010 11.416990 3.022500 # Ta 
187 1 2 0.000000 8.733010 11.416990 7.052500 # Ta 
188 1 2 0.000000 8.733010 11.416990 11.082500 # Ta 
189 1 2 0.000000 8.733010 11.416990 15.112500 # Ta 
190 1 2 0.000000 8.733010 11.416990 19.142500 # Ta 
191 1 2 0.000000 8.733010 15.446990 3.022500 # Ta 
192 1 2 0.000000 8.733010 15.446990 7.052500 # Ta 
193 1 2 0.000000 8.733010 15.446990 11.082500 # Ta 
194 1 2 0.000000 8.733010 15.446990 15.112500 # Ta 
195 1 2 0.000000 8.733010 15.446990 19.142500 # Ta 
196 1 2 0.000000 8.733010 19.476990 3.022500 # Ta 
197 1 2 0.000000 8.733010 19.476990 7.052500 # Ta 
198 1 2 0.000000 8.733010 19.476990 11.082500 # Ta 
199 1 2 0.000000 8.733010 19.476990 15.112500 # Ta 
200 1 2 0.000000 8.733010 19.476990 19.142500 # Ta 
201 1 2 0.000000 12.763010 3.356990 3.022500 # Ta 
202 1 2 0.000000 12.763010 3.356990 7.052500 # Ta 
203 1 2 0.000000 12.763010 3.356990 11.082500 # Ta 
204 1 2 0.000000 12.763010 3.356990 15.112500 # Ta 
205 1 2 0.000000 12.763010 3.356990 19.142500 # Ta 
206 1 2 0.000000 12.763010 7.386990 3.022500 # Ta 
207 1 2 0.000000 12.763010 7.386990 7.052500 # Ta 
208 1 2 0.000000 12.763010 7.386990 11.082500 # Ta 
209 1 2 0.000000 12.763010 7.386990 15.112500 # Ta 
210 1 2 0.000000 12.763010 7.386990 19.142500 # Ta 
211 1 2 0.000000 12.763010 11.416990 3.022500 # Ta 
212 1 2 0.000000 12.763010 11.416990 7.052500 # Ta 
213 1 2 0.000000 12.763010 11.416990 11.082500 # Ta 
214 1 2 0.000000 12.763010 11.416990 15.112500 # Ta 
215 1 2 0.000000 12.763010 11.416990 19.142500 # Ta 
216 1 2 0.000000 12.763010 15.446990 3.022500 # Ta 
217 1 2 0.000000 12.763010 15.446990 7.052500 # Ta 
218 1 2 0.000000 12.763010 15.446990 11.082500 # Ta 
219 1 2 0.000000 12.763010 15.446990 15.112500 # Ta 
220 1 2 0.000000 12.763010 15.446990 19.142500 # Ta 
221 1 2 0.000000 12.763010 19.476990 3.022500 # Ta 
222 1 2 0.000000 12.763010 19.476990 7.052500 # Ta 
223 1 2 0.000000 12.763010 19.476990 11.082500 # Ta 
224 1 2 0.000000 12.763010 19.476990 15.112500 # Ta 
225 1 2 0.000000 12.763010 19.476990 19.142500 # Ta 
226 1 2 0.000000 16.793011 3.356990 3.022500 # Ta 
227 1 2 0.000000 16.793011 3.356990 7.052500 # Ta 
228 1 2 0.000000 16.793011 3.356990 11.082500 # Ta 
229 1 2 0.000000 16.793011 3.356990 15.112500 # Ta 
230 1 2 0.000000 16.793011 3.356990 19.142500 # Ta 
231 1 2 0.000000 16.793011 7.386990 3.022500 # Ta 
232 1 2 0.000000 16.793011 7.386990 7.052500 # Ta 
233 1 2 0.000000 16.793011 7.386990 11.082500 # Ta 
234 1 2 0.000000 16.793011 7.386990 15.112500 # Ta 
235 1 2 0.000000 16.793011 7.386990 19.142500 # Ta 
236 1 2 0.000000 16.793011 11.416990 3.022500 # Ta 
237 1 2 0.000000 16.793011 11.416990 7.052500 # Ta 
238 1 2 0.000000 16.793011 11.416990 11.082500 # Ta 
239 1 2 0.000000 16.793011 11.416990 15.112500 # Ta 
240 1 2 0.000000 16.793011 11.416990 19.142500 # Ta 
241 1 2 0.000000 16.793011 15.446990 3.022500 # Ta 
242 1 2 0.000000 16.793011 15.446990 7.052500 # Ta 
243 1 2 0.000000 16.793011 15.446990 11.082500 # Ta 
244 1 2 0.000000 16.793011 15.446990 15.112500 # Ta 
245 1 2 0.000000 16.793011 15.446990 19.142500 # Ta 
246 1 2 0.000000 16.793011 19.476990 3.022500 # Ta 
247 1 2 0.000000 16.793011 19.476990 7.052500 # Ta 
248 1 2 0.000000 16.793011 19.476990 11.082500 # Ta 
249 1 2 0.000000 16.793011 19.476990 15.112500 # Ta 
250 1 2 0.000000 16.793011 19.476990 19.142500 # Ta 
251 1 2 0.000000 1.346020 0.673010 1.007500 # Ta 
252 1 2 0.000000 1.346020 0.673010 5.037500 # Ta 
253 1 2 0.000000 1.346020 0.673010 9.067500 # Ta 
254 1 2 0.000000 1.346020 0.673010 13.097500 # Ta 
255 1 2 0.000000 1.346020 0.673010 17.127501 # Ta 
256 1 2 0.000000 1.346020 4.703010 1.007500 # Ta 
257 1 2 0.000000 1.346020 4.703010 5.037500 # Ta 
258 1 2 0.000000 1.346020 4.703010 9.067500 # Ta 
259 1 2 0.000000 1.346020 4.703010 13.097500 # Ta 
260 1 2 0.000000 1.346020 4.703010 17.127501 # Ta 
261 1 2 0.000000 1.346020 8.733010 1.007500 # Ta 
262 1 2 0.000000 1.346020 8.733010 5.037500 # Ta 
263 1 2 0.000000 1.346020 8.733010 9.067500 # Ta 
264 1 2 0.000000 1.346020 8.733010 13.097500 # Ta 
265 1 2 0.000000 1.346020 8.733010 17.127501 # Ta 
266 1 2 0.000000 1.346020 12.763010 1.007500 # Ta 
267 1 2 0.000000 1.346020 12.763010 5.037500 # Ta 
268 1 2 0.000000 1.346020 12.763010 9.067500 # Ta 
269 1 2 0.000000 1.346020 12.763010 13.097500 # Ta 
270 1 2 0.000000 1.346020 12.763010 17.127501 # Ta 
271 1 2 0.000000 1.346020 16.793011 1.007500 # Ta 
272 1 2 0.000000 1.346020 16.793011 5.037500 # Ta 
273 1 2 0.000000 1.346020 16.793011 9.067500 # Ta 
274 1 2 0.000000 1.346020 16.793011 13.097500 # Ta 
275 1 2 0.000000 1.346020 16.793011 17.127501 # Ta 
276 1 2 0.000000 5.376020 0.673010 1.007500 # Ta 
277 1 2 0.000000 5.376020 0.673010 5.037500 # Ta 
278 1 2 0.000000 5.376020 0.673010 9.067500 # Ta 
279 1 2 0.000000 5.376020 0.673010 13.097500 # Ta 
280 1 2 0.000000 5.376020 0.673010 17.127501 # Ta 
281 1 2 0.000000 5.376020 4.703010 1.007500 # Ta 
282 1 2 0.000000 5.376020 4.703010 5.037500 # Ta 
283 1 2 0.000000 5.376020 4.703010 9.067500 # Ta 
284 1 2 0.000000 5.376020 4.703010 13.097500 # Ta 
285 1 2 0.000000 5.376020 4.703010 17.127501 # Ta 
286 1 2 0.000000 5.376020 8.733010 1.007500 # Ta 
287 1 2 0.000000 5.376020 8.733010 5.037500 # Ta 
288 1 2 0.000000 5.376020 8.733010 9.067500 # Ta 
289 1 2 0.000000 5.376020 8.733010 13.097500 # Ta 
290 1 2 0.000000 5.376020 8.733010 17.127501 # Ta 
291 1 2 0.000000 5.376020 12.763010 1.007500 # Ta 
292 1 2 0.000000 5.376020 12.763010 5.037500 # Ta 
293 1 2 0.000000 5.376020 12.763010 9.067500 # Ta 
294 1 2 0.000000 5.376020 12.763010 13.097500 # Ta 
295 1 2 0.000000 5.376020 12.763010 17.127501 # Ta 
296 1 2 0.000000 5.376020 16.793011 1.007500 # Ta 
297 1 2 0.000000 5.376020 16.793011 5.037500 # Ta 
298 1 2 0.000000 5.376020 16.793011 9.067500 # Ta 
299 1 2 0.000000 5.376020 16.793011 13.097500 # Ta 
300 1 2 0.000000 5.376020 16.793011 17.127501 # Ta 
301 1 2 0.000000 9.406020 0.673010 1.007500 # Ta 
302 1 2 0.000000 9.406020 0.673010 5.037500 # Ta 
303 1 2 0.000000 9.406020 0.673010 9.067500 # Ta 
304 1 2 0.000000 9.406020 0.673010 13.097500 # Ta 
305 1 2 0.000000 9.406020 0.673010 17.127501 # Ta 
306 1 2 0.000000 9.406020 4.703010 1.007500 # Ta 
307 1 2 0.000000 9.406020 4.703010 5.037500 # Ta 
308 1 2 0.000000 9.406020 4.703010 9.067500 # Ta 
309 1 2 0.000000 9.406020 4.703010 13.097500 # Ta 
310 1 2 0.000000 9.406020 4.703010 17.127501 # Ta 
311 1 2 0.000000 9.406020 8.733010 1.007500 # Ta 
312 1 2 0.000000 9.406020 8.733010 5.037500 # Ta 
313 1 2 0.000000 9.406020 8.733010 9.067500 # Ta 
314 1 2 0.000000 9.406020 8.733010 13.097500 # Ta 
315 1 2 0.000000 9.406020 8.733010 17.127501 # Ta 
316 1 2 0.000000 9.406020 12.763010 1.007500 # Ta 
317 1 2 0.000000 9.406020 12.763010 5.037500 # Ta 
318 1 2 0.000000 9.406020 12.763010 9.067500 # Ta 
319 1 2 0.000000 9.406020 12.763010 13.097500 # Ta 
320 1 2 0.000000 9.406020 12.763010 17.127501 # Ta 
321 1 2 0.000000 9.406020 16.793011 1.007500 # Ta 
322 1 2 0.000000 9.406020 16.793011 5.037500 # Ta 
323 1 2 0.000000 9.406020 16.793011 9.067500 # Ta 
324 1 2 0.000000 9.406020 16.793011 13.097500 # Ta 
325 1 2 0.000000 9.406020 16.793011 17.127501 # Ta 
326 1 2 0.000000 13.436020 0.673010 1.007500 # Ta 
327 1 2 0.000000 13.436020 0.673010 5.037500 # Ta 
328 1 2 0.000000 13.436020 0.673010 9.067500 # Ta 
329 1 2 0.000000 13.436020 0.673010 13.097500 # Ta 
330 1 2 0.000000 13.436020 0.673010 17.127501 # Ta 
331 1 2 0.000000 13.436020 4.703010 1.007500 # Ta 
332 1 2 0.000000 13.436020 4.703010 5.037500 # Ta 
333 1 2 0.000000 13.436020 4.703010 9.067500 # Ta 
334 1 2 0.000000 13.436020 4.703010 13.097500 # Ta 
335 1 2 0.000000 13.436020 4.703010 17.127501 # Ta 
336 1 2 0.000000 13.436020 8.733010 1.007500 # Ta 
337 1 2 0.000000 13.436020 8.733010 5.037500 # Ta 
338 1 2 0.000000 13.436020 8.733010 9.067500 # Ta 
339 1 2 0.000000 13.436020 8.733010 13.097500 # Ta 
340 1 2 0.000000 13.436020 8.733010 17.127501 # Ta 
341 1 2 0.000000 13.436020 12.763010 1.007500 # Ta 
342 1 2 0.000000 13.436020 12.763010 5.037500 # Ta 
343 1 2 0.000000 13.436020 12.763010 9.067500 # Ta 
344 1 2 0.000000 13.436020 12.763010 13.097500 # Ta 
345 1 2 0.000000 13.436020 12.763010 17.127501 # Ta 
346 1 2 0.000000 13.436020 16.793011 1.007500 # Ta 
347 1 2 0.000000 13.436020 16.793011 5.037500 # Ta 
348 1 2 0.000000 13.436020 16.793011 9.067500 # Ta 
349 1 2 0.000000 13.436020 16.793011 13.097500 # Ta 
350 1 2 0.000000 13.436020 16.793011 17.127501 # Ta 
351 1 2 0.000000 17.466021 0.673010 1.007500 # Ta 
352 1 2 0.000000 17.466021 0.673010 5.037500 # Ta 
353 1 2 0.000000 17.466021 0.673010 9.067500 # Ta 
354 1 2 0.000000 17.466021 0.673010 13.097500 # Ta 
355 1 2 0.000000 17.466021 0.673010 17.127501 # Ta 
356 1 2 0.000000 17.466021 4.703010 1.007500 # Ta 
357 1 2 0.000000 17.466021 4.703010 5.037500 # Ta 
358 1 2 0.000000 17.466021 4.703010 9.067500 # Ta 
359 1 2 0.000000 17.466021 4.703010 13.097500 # Ta 
360 1 2 0.000000 17.466021 4.703010 17.127501 # Ta 
361 1 2 0.000000 17.466021 8.733010 1.007500 # Ta 
362 1 2 0.000000 17.466021 8.733010 5.037500 # Ta 
363 1 2 0.000000 17.466021 8.733010 9.067500 # Ta 
364 1 2 0.000000 17.466021 8.733010 13.097500 # Ta 
365 1 2 0.000000 17.466021 8.733010 17.127501 # Ta 
366 1 2 0.000000 17.466021 12.763010 1.007500 # Ta 
367 1 2 0.000000 17.466021 12.763010 5.037500 # Ta 
368 1 2 0.000000 17.466021 12.763010 9.067500 # Ta 
369 1 2 0.000000 17.466021 12.763010 13.097500 # Ta 
370 1 2 0.000000 17.466021 12.763010 17.127501 # Ta 
371 1 2 0.000000 17.466021 16.793011 1.007500 # Ta 
372 1 2 0.000000 17.466021 16.793011 5.037500 # Ta 
373 1 2 0.000000 17.466021 16.793011 9.067500 # Ta 
374 1 2 0.000000 17.466021 16.793011 13.097500 # Ta 
375 1 2 0.000000 17.466021 16.793011 17.127501 # Ta 
376 1 2 0.000000 0.673010 1.346020 3.022500 # Ta 
377 1 2 0.000000 0.673010 1.346020 7.052500 # Ta 
378 1 2 0.000000 0.673010 1.346020 11.082500 # Ta 
379 1 2 0.000000 0.673010 1.346020 15.112500 # Ta 
380 1 2 0.000000 0.673010 1.346020 19.142500 # Ta 
381 1 2 0.000000 0.673010 5.376020 3.022500 # Ta 
382 1 2 0.000000 0.673010 5.376020 7.052500 # Ta 
383 1 2 0.000000 0.673010 5.376020 11.082500 # Ta 
384 1 2 0.000000 0.673010 5.376020 15.112500 # Ta 
385 1 2 0.000000 0.673010 5.376020 19.142500 # Ta 
386 1 2 0.000000 0.673010 9.406020 3.022500 # Ta 
387 1 2 0.000000 0.673010 9.406020 7.052500 # Ta 
388 1 2 0.000000 0.673010 9.406020 11.082500 # Ta 
389 1 2 0.000000 0.673010 9.406020 15.112500 # Ta 
390 1 2 0.000000 0.673010 9.406020 19.142500 # Ta 
391 1 2 0.000000 0.673010 13.436020 3.022500 # Ta 
392 1 2 0.000000 0.673010 13.436020 7.052500 # Ta 
393 1 2 0.000000 0.673010 13.436020 11.082500 # Ta 
394 1 2 0.000000 0.673010 13.436020 15.112500 # Ta 
395 1 2 0.000000 0.673010 13.436020 19.142500 # Ta 
396 1 2 0.000000 0.673010 17.466021 3.022500 # Ta 
397 1 2 0.000000 0.673010 17.466021 7.052500 # Ta 
398 1 2 0.000000 0.673010 17.466021 11.082500 # Ta 
399 1 2 0.000000 0.673010 17.466021 15.112500 # Ta 
400 1 2 0.000000 0.673010 17.466021 19.142500 # Ta 
401 1 2 0.000000 4.703010 1.346020 3.022500 # Ta 
402 1 2 0.000000 4.703010 1.346020 7.052500 # Ta 
403 1 2 0.000000 4.703010 1.346020 11.082500 # Ta 
404 1 2 0.000000 4.703010 1.346020 15.112500 # Ta 
405 1 2 0.000000 4.703010 1.346020 19.142500 # Ta 
406 1 2 0.000000 4.703010 5.376020 3.022500 # Ta 
407 1 2 0.000000 4.703010 5.376020 7.052500 # Ta 
408 1 2 0.000000 4.703010 5.376020 11.082500 # Ta 
409 1 2 0.000000 4.703010 5.376020 15.112500 # Ta 
410 1 2 0.000000 4.703010 5.376020 19.142500 # Ta 
411 1 2 0.000000 4.703010 9.406020 3.022500 # Ta 
412 1 2 0.000000 4.703010 9.406020 7.052500 # Ta 
413 1 2 0.000000 4.703010 9.406020 11.082500 # Ta 
414 1 2 0.000000 4.703010 9.406020 15.112500 # Ta 
415 1 2 0.000000 4.703010 9.406020 19.142500 # Ta 
416 1 2 0.000000 4.703010 13.436020 3.022500 # Ta 
417 1 2 0.000000 4.703010 13.436020 7.052500 # Ta 
418 1 2 0.000000 4.703010 13.436020 11.082500 # Ta 
419 1 2 0.000000 4.703010 13.436020 15.112500 # Ta 
420 1 2 0.000000 4.703010 13.436020 19.142500 # Ta 
421 1 2 0.000000 4.703010 17.466021 3.022500 # Ta 
422 1 2 0.000000 4.703010 17.466021 7.052500 # Ta 
423 1 2 0.000000 4.703010 17.466021 11.082500 # Ta 
424 1 2 0.000000 4.703010 17.466021 15.112500 # Ta 
425 1 2 0.000000 4.703010 17.466021 19.142500 # Ta 
426 1 2 0.000000 8.733010 1.346020 3.022500 # Ta 
427 1 2 0.000000 8.733010 1.346020 7.052500 # Ta 
428 1 2 0.000000 8.733010 1.346020 11.082500 # Ta 
429 1 2 0.000000 8.733010 1.346020 15.112500 # Ta 
430 1 2 0.000000 8.733010 1.346020 19.142500 # Ta 
431 1 2 0.000000 8.733010 5.376020 3.022500 # Ta 
432 1 2 0.000000 8.733010 5.376020 7.052500 # Ta 
433 1 2 0.000000 8.733010 5.376020 11.082500 # Ta 
434 1 2 0.000000 8.733010 5.376020 15.112500 # Ta 
435 1 2 0.000000 8.733010 5.376020 19.142500 # Ta 
436 1 2 0.000000 8.733010 9.406020 3.022500 # Ta 
437 1 2 0.000000 8.733010 9.406020 7.052500 # Ta 
438 1 2 0.000000 8.733010 9.406020 11.082500 # Ta 
439 1 2 0.000000 8.733010 9.406020 15.112500 # Ta 
440 1 2 0.000000 8.733010 9.406020 19.142500 # Ta 
441 1 2 0.000000 8.733010 13.436020 3.022500 # Ta 
442 1 2 0.000000 8.733010 13.436020 7.052500 # Ta 
443 1 2 0.000000 8.733010 13.436020 11.082500 # Ta 
444 1 2 0.000000 8.733010 13.436020 15.112500 # Ta 
445 1 2 0.000000 8.733010 13.436020 19.142500 # Ta 
446 1 2 0.000000 8.733010 17.466021 3.022500 # Ta 
447 1 2 0.000000 8.733010 17.466021 7.052500 # Ta 
448 1 2 0.000000 8.733010 17.466021 11.082500 # Ta 
449 1 2 0.000000 8.733010 17.466021 15.112500 # Ta 
450 1 2 0.000000 8.733010 17.466021 19.142500 # Ta 
451 1 2 0.000000 12.763010 1.346020 3.022500 # Ta 
452 1 2 0.000000 12.763010 1.346020 7.052500 # Ta 
453 1 2 0.000000 12.763010 1.346020 11.082500 # Ta 
454 1 2 0.000000 12.763010 1.346020 15.112500 # Ta 
455 1 2 0.000000 12.763010 1.346020 19.142500 # Ta 
456 1 2 0.000000 12.763010 5.376020 3.022500 # Ta 
457 1 2 0.000000 12.763010 5.376020 7.052500 # Ta 
458 1 2 0.000000 12.763010 5.376020 11.082500 # Ta 
459 1 2 0.000000 12.763010 5.376020 15.112500 # Ta 
460 1 2 0.000000 12.763010 5.376020 19.142500 # Ta 
461 1 2 0.000000 12.763010 9.406020 3.022500 # Ta 
462 1 2 0.000000 12.763010 9.406020 7.052500 # Ta 
463 1 2 0.000000 12.763010 9.406020 11.082500 # Ta 
464 1 2 0.000000 12.763010 9.406020 15.112500 # Ta 
465 1 2 0.000000 12.763010 9.406020 19.142500 # Ta 
466 1 2 0.000000 12.763010 13.436020 3.022500 # Ta 
467 1 2 0.000000 12.763010 13.436020 7.052500 # Ta 
468 1 2 0.000000 12.763010 13.436020 11.082500 # Ta 
469 1 2 0.000000 12.763010 13.436020 15.112500 # Ta 
470 1 2 0.000000 12.763010 13.436020 19.142500 # Ta 
471 1 2 0.000000 12.763010 17.466021 3.022500 # Ta 
472 1 2 0.000000 12.763010 17.466021 7.052500 # Ta 
473 1 2 0.000000 12.763010 17.466021 11.082500 # Ta 
474 1 2 0.000000 12.763010 17.466021 15.112500 # Ta 
475 1 2 0.000000 12.763010 17.466021 19.142500 # Ta 
476 1 2 0.000000 16.793011 1.346020 3.022500 # Ta 
477 1 2 0.000000 16.793011 1.346020 7.052500 # Ta 
478 1 2 0.000000 16.793011 1.346020 11.082500 # Ta 
479 1 2 0.000000 16.793011 1.346020 15.112500 # Ta 
480 1 2 0.000000 16.793011 1.346020 19.142500 # Ta 
481 1 2 0.000000 16.793011 5.376020 3.022500 # Ta 
482 1 2 0.000000 16.793011 5.376020 7.052500 # Ta 
483 1 2 0.000000 16.793011 5.376020 11.082500 # Ta 
484 1 2 0.000000 16.793011 5.376020 15.112500 # Ta 
485 1 2 0.000000 16.793011 5.376020 19.142500 # Ta 
486 1 2 0.000000 16.793011 9.406020 3.022500 # Ta 
487 1 2 0.000000 16.793011 9.406020 7.052500 # Ta 
488 1 2 0.000000 16.793011 9.406020 11.082500 # Ta 
489 1 2 0.000000 16.793011 9.406020 15.112500 # Ta 
490 1 2 0.000000 16.793011 9.406020 19.142500 # Ta 
491 1 2 0.000000 16.793011 13.436020 3.022500 # Ta 
492 1 2 0.000000 16.793011 13.436020 7.052500 # Ta 
493 1 2 0.000000 16.793011 13.436020 11.082500 # Ta 
494 1 2 0.000000 16.793011 13.436020 15.112500 # Ta 
495 1 2 0.000000 16.793011 13.436020 19.142500 # Ta 
496 1 2 0.000000 16.793011 17.466021 3.022500 # Ta 
497 1 2 0.000000 16.793011 17.466021 7.052500 # Ta 
498 1 2 0.000000 16.793011 17.466021 11.082500 # Ta 
499 1 2 0.000000 16.793011 17.466021 15.112500 # Ta 
500 1 2 0.000000 16.793011 17.466021 19.142500 # Ta 
501 1 2 0.000000 3.356990 0.673010 1.007500 # Ta 
502 1 2 0.000000 3.356990 0.673010 5.037500 # Ta 
503 1 2 0.000000 3.356990 0.673010 9.067500 # Ta 
504 1 2 0.000000 3.356990 0.673010 13.097500 # Ta 
505 1 2 0.000000 3.356990 0.673010 17.127501 # Ta 
506 1 2 0.000000 3.356990 4.703010 1.007500 # Ta 
507 1 2 0.000000 3.356990 4.703010 5.037500 # Ta 
508 1 2 0.000000 3.356990 4.703010 9.067500 # Ta 
509 1 2 0.000000 3.356990 4.703010 13.097500 # Ta 
510 1 2 0.000000 3.356990 4.703010 17.127501 # Ta 
511 1 2 0.000000 3.356990 8.733010 1.007500 # Ta 
512 1 2 0.000000 3.356990 8.733010 5.037500 # Ta 
513 1 2 0.000000 3.356990 8.733010 9.067500 # Ta 
514 1 2 0.000000 3.356990 8.733010 13.097500 # Ta 
515 1 2 0.000000 3.356990 8.733010 17.127501 # Ta 
516 1 2 0.000000 3.356990 12.763010 1.007500 # Ta 
517 1 2 0.000000 3.356990 12.763010 5.037500 # Ta 
518 1 2 0.000000 3.356990 12.763010 9.067500 # Ta 
519 1 2 0.000000 3.356990 12.763010 13.097500 # Ta 
520 1 2 0.000000 3.356990 12.763010 17.127501 # Ta 
521 1 2 0.000000 3.356990 16.793011 1.007500 # Ta 
522 1 2 0.000000 3.356990 16.793011 5.037500 # Ta 
523 1 2 0.000000 3.356990 16.793011 9.067500 # Ta 
524 1 2 0.000000 3.356990 16.793011 13.097500 # Ta 
525 1 2 0.000000 3.356990 16.793011 17.127501 # Ta 
526 1 2 0.000000 7.386990 0.673010 1.007500 # Ta 
527 1 2 0.000000 7.386990 0.673010 5.037500 # Ta 
528 1 2 0.000000 7.386990 0.673010 9.067500 # Ta 
529 1 2 0.000000 7.386990 0.673010 13.097500 # Ta 
530 1 2 0.000000 7.386990 0.673010 17.127501 # Ta 
531 1 2 0.000000 7.386990 4.703010 1.007500 # Ta 
532 1 2 0.000000 7.386990 4.703010 5.037500 # Ta 
533 1 2 0.000000 7.386990 4.703010 9.067500 # Ta 
534 1 2 0.000000 7.386990 4.703010 13.097500 # Ta 
535 1 2 0.000000 7.386990 4.703010 17.127501 # Ta 
536 1 2 0.000000 7.386990 8.733010 1.007500 # Ta 
537 1 2 0.000000 7.386990 8.733010 5.037500 # Ta 
538 1 2 0.000000 7.386990 8.733010 9.067500 # Ta 
539 1 2 0.000000 7.386990 8.733010 13.097500 # Ta 
540 1 2 0.000000 7.386990 8.733010 17.127501 # Ta 
541 1 2 0.000000 7.386990 12.763010 1.007500 # Ta 
542 1 2 0.000000 7.386990 12.763010 5.037500 # Ta 
543 1 2 0.000000 7.386990 12.763010 9.067500 # Ta 
544 1 2 0.000000 7.386990 12.763010 13.097500 # Ta 
545 1 2 0.000000 7.386990 12.763010 17.127501 # Ta 
546 1 2 0.000000 7.386990 16.793011 1.007500 # Ta 
547 1 2 0.000000 7.386990 16.793011 5.037500 # Ta 
548 1 2 0.000000 7.386990 16.793011 9.067500 # Ta 
549 1 2 0.000000 7.386990 16.793011 13.097500 # Ta 
550 1 2 0.000000 7.386990 16.793011 17.127501 # Ta 
551 1 2 0.000000 11.416990 0.673010 1.007500 # Ta 
552 1 2 0.000000 11.416990 0.673010 5.037500 # Ta 
553 1 2 0.000000 11.416990 0.673010 9.067500 # Ta 
554 1 2 0.000000 11.416990 0.673010 13.097500 # Ta 
555 1 2 0.000000 11.416990 0.673010 17.127501 # Ta 
556 1 2 0.000000 11.416990 4.703010 1.007500 # Ta 
557 1 2 0.000000 11.416990 4.703010 5.037500 # Ta 
558 1 2 0.000000 11.416990 4.703010 9.067500 # Ta 
559 1 2 0.000000 11.416990 4.703010 13.097500 # Ta 
560 1 2 0.000000 11.416990 4.703010 17.127501 # Ta 
561 1 2 0.000000 11.416990 8.733010 1.007500 # Ta 
562 1 2 0.000000 11.416990 8.733010 5.037500 # Ta 
563 1 2 0.000000 11.416990 8.733010 9.067500 # Ta 
564 1 2 0.000000 11.416990 8.733010 13.097500 # Ta 
565 1 2 0.000000 11.416990 8.733010 17.127501 # Ta 
566 1 2 0.000000 11.416990 12.763010 1.007500 # Ta 
567 1 2 0.000000 11.416990 12.763010 5.037500 # Ta 
568 1 2 0.000000 11.416990 12.763010 9.067500 # Ta 
569 1 2 0.000000 11.416990 12.763010 13.097500 # Ta 
570 1 2 0.000000 11.416990 12.763010 17.127501 # Ta 
571 1 2 0.000000 11.416990 16.793011 1.007500 # Ta 
572 1 2 0.000000 11.416990 16.793011 5.037500 # Ta 
573 1 2 0.000000 11.416990 16.793011 9.067500 # Ta 
574 1 2 0.000000 11.416990 16.793011 13.097500 # Ta 
575 1 2 0.000000 11.416990 16.793011 17.127501 # Ta 
576 1 2 0.000000 15.446990 0.673010 1.007500 # Ta 