ITEM: TIMESTEP
0
ITEM: NUMBER OF ATOMS
1000
ITEM: BOX BOUNDS pp pp pp
1.9749989999999999e+00 1.8175000000000001e+01
1.9749989999999999e+00 1.8175000000000001e+01
1.9749989999999999e+00 1.8175000000000001e+01
ITEM: ATOMS id type xs ys zs
22 2 0.204745 0.0385508 0.186505
102 2 0.0809229 0.0944813 0.224671
151 2 0.232948 0.167032 0.16638
155 2 0.196287 0.143287 0.0698132
171 2 0.147641 0.0526601 0.157181
175 2 0.239537 0.0644372 0.0246367
282 2 0.212084 0.178324 0.200069
406 2 0.185751 0.235267 0.157922
410 2 0.196308 0.210448 0.0531057
507 2 0.17287 0.196617 0.215694
607 2 0.0474526 0.229487 0.225306
626 2 0.102677 0.15584 0.162041
630 2 0.113992 0.168364 0.0348997
646 2 0.141229 0.0488906 0.164631
650 2 0.112095 0.096 0.0220152
726 2 0.0359711 0.15861 0.108484
730 2 0.0320664 0.188923 0.0397932
777 1 0.227566 0.152739 0.199987
797 1 0.190028 0.0446169 0.183684
981 1 0.0432877 0.22856 0.166404
985 1 0.0413736 0.178831 0.050214
405 2 0.12352 0.00565001 0.066147
880 1 0.111793 0.0071259 0.0620094
27 2 0.333922 0.162765 0.217638
47 2 0.3155 0.055138 0.186516
176 2 0.425673 0.174699 0.149214
180 2 0.406903 0.175396 0.0434382
196 2 0.465552 0.0426333 0.183792
200 2 0.42003 0.0696843 0.024115
307 2 0.453094 0.175627 0.195775
431 2 0.425846 0.21141 0.15825
435 2 0.405113 0.188578 0.0274407
532 2 0.339574 0.180239 0.199254
651 2 0.292309 0.186696 0.164163
655 2 0.304092 0.178137 0.0362922
671 2 0.317419 0.0486443 0.186392
675 2 0.256088 0.0462039 0.0418057
802 1 0.455704 0.146853 0.218806
822 1 0.470508 0.0409833 0.185126
906 1 0.299624 0.222576 0.149031
910 1 0.304676 0.172646 0.0476571
52 2 0.574311 0.164924 0.210009
72 2 0.55332 0.0558966 0.206552
201 2 0.667497 0.172922 0.155227
205 2 0.660878 0.176779 0.0421327
221 2 0.665307 0.0520573 0.189886
225 2 0.664377 0.0569041 0.0272626
332 2 0.693187 0.17901 0.198626
456 2 0.664526 0.224541 0.164658
460 2 0.656979 0.185975 0.0397426
557 2 0.580776 0.173285 0.200454
676 2 0.531043 0.182963 0.168802
680 2 0.574307 0.182975 0.0500172
696 2 0.502292 0.038851 0.190138
700 2 0.536425 0.0598537 0.0531773
827 1 0.717063 0.150492 0.207668
847 1 0.712996 0.0389518 0.192925
931 1 0.53409 0.222553 0.150349
935 1 0.577051 0.183467 0.0504243
705 2 0.732203 0.184892 0.0380475
725 2 0.744608 0.048586 0.036055
746 2 0.996802 0.113959 0.111636
750 2 0.999804 0.0466891 0.0687894
77 2 0.791906 0.167762 0.194483
97 2 0.80121 0.0537462 0.23669
126 2 0.942373 0.146841 0.158806
130 2 0.92751 0.236239 0.0569802
146 2 0.934229 0.0488004 0.177204
150 2 0.884574 0.0457489 0.0219164
226 2 0.824787 0.112278 0.0869102
230 2 0.88207 0.161929 0.0781962
246 2 0.809752 0.0581929 0.175565
250 2 0.819989 0.066573 0.0309454
257 2 0.94019 0.164537 0.179676
357 2 0.841636 0.176517 0.209094
385 2 0.925131 0.245588 0.0381049
485 2 0.789794 0.194432 0.0480916
582 2 0.819391 0.184458 0.20365
701 2 0.752799 0.179661 0.170091
721 2 0.807381 0.0680069 0.176249
752 1 0.958938 0.139886 0.236653
772 1 0.972601 0.0187943 0.197642
852 1 0.85116 0.16633 0.222123
872 1 0.862723 0.0411931 0.224257
956 1 0.77971 0.212133 0.162459
960 1 0.79642 0.191577 0.0465215
376 2 0.948405 0.0148762 0.0969534
380 2 0.899844 0.0103413 0.0623343
881 1 0.134228 0.261463 0.138192
885 1 0.112636 0.290057 0.0381644
7 2 0.170382 0.286335 0.180586
107 2 0.052984 0.323938 0.247911
156 2 0.17124 0.311351 0.147644
160 2 0.19441 0.374958 0.0384239
287 2 0.218967 0.417479 0.201848
411 2 0.17211 0.477314 0.139925
415 2 0.196493 0.368619 0.0423533
512 2 0.174773 0.419711 0.193723
612 2 0.0516414 0.42071 0.217338
631 2 0.14063 0.283942 0.147238
635 2 0.111668 0.302039 0.0358847
731 2 0.0202515 0.392218 0.140552
735 2 0.00687377 0.403044 0.0461985
782 1 0.208518 0.292094 0.186904
886 1 0.119896 0.49174 0.121581
986 1 0.0317741 0.407637 0.151667
990 1 0.0177711 0.402069 0.0312533
32 2 0.334272 0.294658 0.197569
181 2 0.443578 0.312799 0.144142
185 2 0.403466 0.370823 0.0315234
312 2 0.460615 0.416108 0.196584
436 2 0.41955 0.47259 0.156917
440 2 0.417796 0.417656 0.0364242
537 2 0.335167 0.418117 0.196833
656 2 0.297605 0.31506 0.167888
660 2 0.299947 0.365711 0.0443227
807 1 0.457888 0.291935 0.185722
911 1 0.301435 0.466061 0.150225
915 1 0.274309 0.444302 0.0534557
57 2 0.581126 0.292478 0.196955
206 2 0.694334 0.314423 0.144422
210 2 0.635694 0.367386 0.0327729
337 2 0.705006 0.418911 0.196638
461 2 0.674431 0.472009 0.155624
465 2 0.650801 0.417236 0.0377256
562 2 0.584854 0.418472 0.197269
681 2 0.519363 0.323135 0.155992
685 2 0.581703 0.357467 0.0390711
832 1 0.703789 0.294791 0.190275
936 1 0.542558 0.466689 0.150438
940 1 0.533278 0.444339 0.0507285
381 2 0.95088 0.267469 0.151464
481 2 0.824393 0.286081 0.161622
82 2 0.816538 0.289691 0.195232
131 2 0.958447 0.273616 0.154964
135 2 0.91261 0.339309 0.0232307
231 2 0.821797 0.327208 0.146466
235 2 0.819852 0.376512 0.0270652
262 2 0.938287 0.445258 0.239229
362 2 0.850224 0.402417 0.183876
486 2 0.848687 0.410614 0.171836
490 2 0.821407 0.40838 0.0413352
587 2 0.828393 0.420813 0.190847
706 2 0.779815 0.315557 0.157321
710 2 0.811518 0.376939 0.0303122
757 1 0.957247 0.269918 0.170351
857 1 0.859009 0.310551 0.214394
961 1 0.765786 0.470611 0.144956
965 1 0.819961 0.41452 0.0357131
890 1 0.0751798 0.534094 0.0261752
390 2 0.00962507 0.520587 0.0535905
12 2 0.174454 0.529513 0.185495
161 2 0.174113 0.555559 0.148882
165 2 0.203992 0.621887 0.0423045
292 2 0.219978 0.66297 0.202294
416 2 0.17461 0.701049 0.156489
420 2 0.204583 0.638793 0.0477436
517 2 0.172133 0.656145 0.191893
617 2 0.0616307 0.700455 0.225775
636 2 0.139791 0.543145 0.148163
640 2 0.087066 0.554783 0.0235312
736 2 0.0228829 0.654928 0.149687
740 2 0.0215214 0.652317 0.0380988
787 1 0.209434 0.541031 0.186558
891 1 0.128969 0.734164 0.134215
991 1 0.0258892 0.665444 0.15379
995 1 0.0124332 0.649887 0.0329546
117 2 0.0640468 0.718718 0.237888
37 2 0.335314 0.537851 0.197144
186 2 0.442784 0.562582 0.14352
190 2 0.399009 0.61431 0.03122
317 2 0.460734 0.664461 0.196228
441 2 0.424416 0.699715 0.16013
445 2 0.414267 0.675328 0.0377015
542 2 0.335487 0.666335 0.196177
661 2 0.299017 0.56774 0.171063
665 2 0.296206 0.594442 0.0427966
812 1 0.459947 0.540833 0.185237
916 1 0.302038 0.704727 0.149396
920 1 0.264439 0.726864 0.0547465
62 2 0.583549 0.537525 0.197066
211 2 0.696603 0.561115 0.139992
215 2 0.629951 0.608637 0.0324252
342 2 0.70393 0.666393 0.195834
466 2 0.678097 0.701787 0.1562
470 2 0.636633 0.680794 0.0379687
567 2 0.584424 0.66705 0.197418
686 2 0.51874 0.574549 0.155991
690 2 0.583455 0.597345 0.0383166
837 1 0.709749 0.541798 0.185449
941 1 0.536181 0.711538 0.149969
945 1 0.551026 0.701431 0.049043
386 2 0.941895 0.505413 0.14963
87 2 0.815158 0.538149 0.199427
136 2 0.949425 0.505602 0.149415
140 2 0.930168 0.569693 0.030539
236 2 0.829767 0.599684 0.152438
240 2 0.821393 0.613784 0.0335939
267 2 0.940768 0.684342 0.245111
367 2 0.850042 0.65236 0.182797
491 2 0.855224 0.653856 0.164612
495 2 0.819404 0.665227 0.0386262
592 2 0.827297 0.664373 0.194201
711 2 0.774641 0.56729 0.158777
715 2 0.822882 0.615794 0.032607
762 1 0.966179 0.529403 0.165683
862 1 0.861622 0.558261 0.219882
966 1 0.764513 0.713909 0.146996
970 1 0.828311 0.67998 0.0425227
895 1 0.0856551 0.768002 0.0529109
17 2 0.176549 0.784865 0.188537
166 2 0.176357 0.818655 0.153696
297 2 0.20311 0.826516 0.192742
401 2 0.227691 0.949557 0.128267
421 2 0.179783 0.836684 0.154924
425 2 0.159061 0.951925 0.0188351
522 2 0.173554 0.837785 0.181094
602 2 0.0586128 0.954107 0.18843
641 2 0.136111 0.838474 0.146908
645 2 0.0755419 0.760588 0.0497995
741 2 0.015809 0.876656 0.133552
745 2 0.0274144 0.867881 0.0403591
792 1 0.209902 0.790001 0.18898
876 1 0.117604 0.987081 0.14496
896 1 0.127412 0.863998 0.139939
900 1 0.149509 0.938641 0.0194222
976 1 0.0246136 0.964449 0.161598
980 1 0.0321554 0.981105 0.0593767
996 1 0.023253 0.884749 0.129221
1000 1 0.0287956 0.848676 0.0238218
670 2 0.247206 0.784837 0.0553316
276 2 0.238278 0.92109 0.000644167
170 2 0.253724 0.779773 0.0749156
277 2 0.289471 0.942868 0.21023
42 2 0.332129 0.776146 0.199279
191 2 0.468296 0.793828 0.141105
195 2 0.392091 0.853206 0.0421751
302 2 0.394107 0.940227 0.239606
426 2 0.390368 0.970578 0.148761
430 2 0.469382 0.985808 0.060162
446 2 0.419391 0.846578 0.158494
450 2 0.417513 0.887755 0.0177657
527 2 0.313501 0.941299 0.218476
547 2 0.335545 0.817078 0.180955
666 2 0.307717 0.841531 0.156079
817 1 0.45875 0.790491 0.187128
901 1 0.293155 0.965195 0.167886
905 1 0.299078 0.978289 0.074942
921 1 0.314996 0.847369 0.150776
925 1 0.308408 0.89674 0.0384777
930 1 0.485172 0.982419 0.0575876
322 2 0.50049 0.844725 0.190017
67 2 0.579625 0.77817 0.198796
216 2 0.713636 0.791901 0.133685
220 2 0.608663 0.840434 0.0383598
327 2 0.632874 0.950561 0.234459
347 2 0.719586 0.839675 0.19677
451 2 0.623654 0.967656 0.131064
455 2 0.723851 0.983377 0.0788283
471 2 0.677082 0.849709 0.165194
475 2 0.656703 0.876192 0.00263405
552 2 0.631083 0.950037 0.232852
572 2 0.555929 0.832445 0.189034
691 2 0.512737 0.827655 0.151361
695 2 0.616621 0.839148 0.037033
842 1 0.707682 0.790485 0.187316
926 1 0.556859 0.975549 0.127246
946 1 0.53146 0.872639 0.140083
950 1 0.552009 0.875858 0.0300659
955 1 0.706713 0.973516 0.0630559
391 2 0.952007 0.751678 0.151041
395 2 0.967625 0.758783 0.0668465
92 2 0.80286 0.766457 0.203933
141 2 0.952007 0.756888 0.152386
145 2 0.936956 0.795522 0.0388381
241 2 0.818304 0.825881 0.132581
245 2 0.824243 0.826646 0.0506732
272 2 0.958986 0.783176 0.168103
352 2 0.858152 0.931776 0.214051
396 2 0.924661 0.848191 0.166777
400 2 0.925865 0.897393 0.0391645
476 2 0.815732 0.960202 0.133605
480 2 0.866383 0.966575 0.0721492
496 2 0.794626 0.842738 0.137672
500 2 0.859306 0.916889 0.0286434
577 2 0.849923 0.945551 0.208882
597 2 0.782643 0.811181 0.206556
716 2 0.784198 0.830029 0.153182
720 2 0.835494 0.811878 0.0135094
767 1 0.963268 0.781566 0.174839
867 1 0.850185 0.789497 0.235712
951 1 0.809416 0.966693 0.141772
971 1 0.787009 0.843055 0.137613
975 1 0.770065 0.896032 0.0195929
251 2 0.976943 0.915946 0.00155461
2 2 0.165578 0.123389 0.268691
122 2 0.0493981 0.0371774 0.262047
3 2 0.177497 0.147751 0.441981
23 2 0.205971 0.0333122 0.421797
103 2 0.0710306 0.151355 0.434602
123 2 0.0404189 0.0152275 0.465688
152 2 0.170423 0.156132 0.289205
283 2 0.218442 0.17472 0.434279
407 2 0.1807 0.218036 0.308891
508 2 0.187197 0.16906 0.433746
608 2 0.0601668 0.218718 0.452465
627 2 0.160062 0.145287 0.284445
647 2 0.0635531 0.0692392 0.36391
727 2 0.0443628 0.201418 0.309487
747 2 0.0444819 0.0305256 0.256044
778 1 0.241629 0.139084 0.444149
798 1 0.200609 0.0304862 0.420586
882 1 0.151321 0.243478 0.324531
982 1 0.0460502 0.201469 0.313865
672 2 0.240484 0.0500186 0.334936
172 2 0.251232 0.057932 0.33857
28 2 0.31246 0.146493 0.44383
48 2 0.370404 0.0408765 0.437291
177 2 0.389486 0.162511 0.309254
197 2 0.483239 0.0564366 0.319456
308 2 0.4562 0.178181 0.435115
432 2 0.417646 0.213611 0.313977
533 2 0.33514 0.171122 0.436606
652 2 0.325653 0.172785 0.309421
803 1 0.474346 0.128201 0.443311
823 1 0.425239 0.0347987 0.42094
907 1 0.291496 0.209332 0.313223
697 2 0.485696 0.0577913 0.323541
53 2 0.567563 0.158609 0.44039
73 2 0.590362 0.0481248 0.435651
202 2 0.634207 0.16235 0.309776
222 2 0.729938 0.0632984 0.320693
333 2 0.699246 0.178958 0.434009
457 2 0.664541 0.213952 0.313818
558 2 0.585334 0.169374 0.435705
677 2 0.571722 0.173962 0.31157
828 1 0.710923 0.134856 0.438575
848 1 0.686791 0.0345532 0.425327
932 1 0.540143 0.209087 0.312641
78 2 0.818434 0.147242 0.434517
98 2 0.776561 0.0411281 0.457618
127 2 0.951214 0.151201 0.294639
147 2 0.957517 0.0678697 0.370277
227 2 0.838449 0.169354 0.334377
247 2 0.788838 0.0550485 0.297682
258 2 0.961153 0.176212 0.435516
358 2 0.848567 0.173229 0.431654
482 2 0.823706 0.202009 0.317841
583 2 0.827442 0.177267 0.427939
702 2 0.785496 0.201248 0.3211
722 2 0.758324 0.0567851 0.312453
753 1 0.971725 0.1391 0.442377
773 1 0.964443 0.0582894 0.498672
853 1 0.850953 0.134508 0.430762
873 1 0.908079 0.0397158 0.446637
957 1 0.79058 0.209684 0.313092
8 2 0.184601 0.306536 0.428364
108 2 0.064037 0.267218 0.45289
157 2 0.179862 0.332512 0.313515
288 2 0.219833 0.415542 0.438069
412 2 0.177334 0.459589 0.308982
513 2 0.175606 0.395471 0.436915
613 2 0.0627006 0.463831 0.439533
632 2 0.159098 0.310674 0.3277
732 2 0.0341756 0.366225 0.303564
783 1 0.208573 0.290519 0.437385
887 1 0.133036 0.470897 0.322031
987 1 0.0340275 0.424249 0.307945
33 2 0.33404 0.293132 0.437671
182 2 0.414818 0.335961 0.311108
313 2 0.460623 0.415942 0.438339
437 2 0.416881 0.460791 0.313787
538 2 0.334513 0.414335 0.439251
657 2 0.293349 0.334463 0.31371
808 1 0.459277 0.290136 0.437127
912 1 0.291369 0.458998 0.312999
58 2 0.583477 0.292354 0.437671
207 2 0.664585 0.335811 0.311281
338 2 0.706735 0.416928 0.437791
462 2 0.664854 0.460987 0.313579
563 2 0.585867 0.413916 0.437615
682 2 0.538985 0.334633 0.314369
833 1 0.707641 0.289026 0.43923
937 1 0.538754 0.458985 0.31156
382 2 0.94075 0.2732 0.328544
83 2 0.820012 0.292849 0.437823
132 2 0.938491 0.28686 0.323336
232 2 0.813889 0.345719 0.308226
263 2 0.958413 0.415025 0.438561
363 2 0.841958 0.414633 0.441869
387 2 0.937191 0.488341 0.326966
487 2 0.814338 0.451968 0.313205
588 2 0.83032 0.41558 0.434267
707 2 0.786385 0.334663 0.315317
758 1 0.966609 0.303085 0.436471
858 1 0.862035 0.296603 0.439331
962 1 0.79126 0.459029 0.312631
112 2 0.0542114 0.552078 0.252984
13 2 0.182834 0.557961 0.432267
113 2 0.0655057 0.501092 0.448043
162 2 0.179898 0.582214 0.31292
293 2 0.220392 0.663197 0.438155
417 2 0.177354 0.705981 0.307136
518 2 0.174783 0.643076 0.436803
618 2 0.0683135 0.712389 0.441553
637 2 0.162259 0.566526 0.330125
737 2 0.0379367 0.607902 0.304699
788 1 0.208912 0.539915 0.437814
892 1 0.138359 0.715879 0.329221
992 1 0.0323049 0.675436 0.308897
118 2 0.0702297 0.73224 0.450329
38 2 0.335365 0.539189 0.438315
187 2 0.41441 0.585662 0.309093
318 2 0.46074 0.664314 0.438323
442 2 0.417921 0.706237 0.31245
543 2 0.335453 0.664856 0.440711
662 2 0.292792 0.581983 0.313267
813 1 0.459991 0.53992 0.436402
917 1 0.290879 0.707509 0.313527
63 2 0.584112 0.539625 0.438189
212 2 0.664158 0.585269 0.310984
343 2 0.707084 0.665332 0.437685
467 2 0.665366 0.707047 0.313384
568 2 0.585108 0.663627 0.439387
687 2 0.539369 0.583276 0.314235
838 1 0.708932 0.539879 0.437059
942 1 0.539626 0.708439 0.31289
88 2 0.820835 0.538578 0.437658
137 2 0.939654 0.542702 0.327427
237 2 0.814683 0.59179 0.307517
268 2 0.958684 0.661696 0.43826
368 2 0.841844 0.661345 0.443549
392 2 0.937891 0.736776 0.330825
492 2 0.81608 0.68982 0.311047
593 2 0.829649 0.664984 0.434353
712 2 0.786651 0.582067 0.313909
763 1 0.971651 0.559768 0.436514
863 1 0.865896 0.541575 0.439081
967 1 0.790755 0.708557 0.313609
142 2 0.940874 0.738344 0.333904
502 2 0.158535 0.951971 0.265988
622 2 0.0285471 0.874771 0.264436
18 2 0.188182 0.789288 0.431469
167 2 0.180335 0.818369 0.306955
298 2 0.204427 0.822819 0.432018
402 2 0.163707 0.963762 0.290168
422 2 0.180446 0.850091 0.330554
503 2 0.155701 0.940236 0.486044
523 2 0.190104 0.828819 0.430443
603 2 0.0747759 0.940069 0.397506
623 2 0.0271745 0.883032 0.463082
642 2 0.147578 0.83248 0.327835
742 2 0.0240021 0.830001 0.305625
793 1 0.210229 0.79005 0.438212
877 1 0.149921 0.972683 0.295971
897 1 0.144143 0.865105 0.334463
977 1 0.0196842 0.966627 0.334397
997 1 0.0219449 0.86613 0.280425
278 2 0.291202 0.933499 0.447398
43 2 0.334011 0.779736 0.437726
192 2 0.416627 0.818319 0.312186
303 2 0.447933 0.932505 0.453672
323 2 0.49363 0.822439 0.433407
427 2 0.396747 0.9707 0.309658
447 2 0.4258 0.839968 0.326145
528 2 0.287069 0.944517 0.437069
548 2 0.34607 0.808941 0.434075
667 2 0.294327 0.826814 0.312501
818 1 0.459061 0.792293 0.437762
902 1 0.317251 0.975858 0.31504
922 1 0.28958 0.863712 0.322498
68 2 0.580491 0.778532 0.437578
217 2 0.667448 0.815992 0.312196
328 2 0.664244 0.933903 0.447038
348 2 0.742595 0.833611 0.434374
452 2 0.640829 0.970325 0.30438
472 2 0.680604 0.838534 0.324003
553 2 0.602708 0.939419 0.449961
573 2 0.558046 0.818102 0.432927
692 2 0.538573 0.825786 0.313084
843 1 0.709193 0.791677 0.437616
927 1 0.573597 0.977841 0.311325
947 1 0.529861 0.87327 0.3184
252 2 0.929776 0.968982 0.26118
372 2 0.861476 0.833658 0.274094
93 2 0.813567 0.77297 0.439122
242 2 0.839105 0.829202 0.278503
253 2 0.919529 0.959784 0.477413
273 2 0.962038 0.785417 0.435244
353 2 0.847394 0.929535 0.419338
373 2 0.840623 0.823594 0.450498
377 2 0.926766 0.976947 0.301057
397 2 0.930874 0.894682 0.364312
477 2 0.805215 0.961776 0.342437
497 2 0.846277 0.831582 0.279923
578 2 0.854129 0.936344 0.421377
598 2 0.811251 0.811815 0.436506
717 2 0.787173 0.826241 0.313962
768 1 0.977054 0.789359 0.433161
868 1 0.853745 0.789475 0.439951
952 1 0.808229 0.957836 0.315311
972 1 0.765972 0.854842 0.315034
4 2 0.170488 0.149465 0.665455
24 2 0.199484 0.0422589 0.66384
104 2 0.0760399 0.135858 0.696279
124 2 0.0313731 0.04395 0.63442
153 2 0.179858 0.167876 0.561811
173 2 0.24229 0.0578346 0.573471
284 2 0.21754 0.17325 0.681632
408 2 0.186039 0.217799 0.558767
509 2 0.178276 0.167151 0.673417
609 2 0.0530662 0.201029 0.714331
628 2 0.160954 0.166419 0.573895
648 2 0.113865 0.0562215 0.537893
728 2 0.0473106 0.205722 0.535143
748 2 0.0288457 0.0424301 0.612891
779 1 0.239843 0.135515 0.69112
799 1 0.204515 0.0344355 0.668603
883 1 0.137656 0.244536 0.571218
983 1 0.0446847 0.193522 0.543432
673 2 0.242376 0.0554467 0.568341
729 2 0.0490115 0.200858 0.729336
29 2 0.310932 0.148047 0.68486
49 2 0.368946 0.0442553 0.685905
178 2 0.38805 0.165463 0.559809
198 2 0.485682 0.0648707 0.562993
309 2 0.457507 0.177097 0.68312
433 2 0.416899 0.213649 0.562054
534 2 0.334169 0.17179 0.685732
653 2 0.32204 0.170921 0.559272
804 1 0.477573 0.126589 0.692655
824 1 0.426087 0.0365072 0.669534
908 1 0.290738 0.209065 0.563028
698 2 0.480257 0.0566933 0.566883
54 2 0.564318 0.158408 0.681263
74 2 0.598122 0.0514101 0.689213
203 2 0.633872 0.162647 0.559663
223 2 0.725669 0.063715 0.563166
334 2 0.700302 0.178382 0.683345
458 2 0.665102 0.213693 0.561939
559 2 0.58413 0.170768 0.686194
678 2 0.570799 0.172535 0.560243
829 1 0.715897 0.132312 0.689435
849 1 0.677064 0.0357343 0.676259
933 1 0.54036 0.208875 0.56328
79 2 0.814733 0.148223 0.68699
99 2 0.79022 0.0440901 0.687053
128 2 0.940875 0.172721 0.573207
148 2 0.947422 0.0641898 0.528033
228 2 0.833146 0.169111 0.584766
248 2 0.788325 0.0629064 0.545275
259 2 0.959983 0.184997 0.649139
359 2 0.835288 0.177782 0.688323
483 2 0.816776 0.202994 0.56499
584 2 0.82459 0.178396 0.677422
703 2 0.785967 0.200637 0.568183
723 2 0.766945 0.0598081 0.556474
754 1 0.96258 0.136553 0.668761
774 1 0.961434 0.038451 0.736982
854 1 0.862413 0.145894 0.678196
874 1 0.906905 0.0484191 0.678971
958 1 0.790508 0.209823 0.563479
149 2 0.957703 0.0407209 0.743211
9 2 0.18328 0.304966 0.675098
109 2 0.0633002 0.280786 0.706433
158 2 0.178344 0.332246 0.5596
289 2 0.220531 0.415901 0.684967
413 2 0.176647 0.459925 0.55738
514 2 0.179276 0.39712 0.681761
614 2 0.0629429 0.45952 0.692323
633 2 0.151955 0.313461 0.56761
733 2 0.0324857 0.368477 0.561759
784 1 0.208151 0.29184 0.689052
888 1 0.127606 0.474752 0.567397
988 1 0.030563 0.423673 0.549954
34 2 0.334422 0.293074 0.684842
183 2 0.414339 0.335484 0.560921
314 2 0.460672 0.416173 0.685127
438 2 0.415859 0.460724 0.561627
539 2 0.334638 0.416135 0.689443
658 2 0.292475 0.334071 0.560836
809 1 0.458273 0.29127 0.690615
913 1 0.289866 0.459216 0.562087
59 2 0.583295 0.292356 0.684845
208 2 0.665325 0.335057 0.560934
339 2 0.707093 0.416812 0.685827
463 2 0.664332 0.461066 0.561769
564 2 0.585094 0.415825 0.689946
683 2 0.53869 0.335391 0.56136
834 1 0.707135 0.290921 0.689283
938 1 0.540365 0.459287 0.56278
383 2 0.940095 0.267794 0.571055
84 2 0.820544 0.293157 0.685762
133 2 0.939359 0.28879 0.561459
233 2 0.815428 0.346146 0.557447
264 2 0.954583 0.42118 0.673766
364 2 0.841452 0.416739 0.691407
388 2 0.941368 0.49598 0.572995
488 2 0.821241 0.451789 0.557591
589 2 0.830045 0.416187 0.68419
708 2 0.786337 0.335277 0.561971
759 1 0.963367 0.29509 0.673273
859 1 0.862141 0.297464 0.689582
963 1 0.791903 0.458885 0.563689
14 2 0.184448 0.556952 0.678176
114 2 0.0669536 0.507884 0.700902
163 2 0.178222 0.582376 0.558802
294 2 0.221327 0.662341 0.684117
418 2 0.176433 0.705063 0.556106
519 2 0.177752 0.643964 0.682227
619 2 0.0706733 0.70175 0.687423
638 2 0.151512 0.563483 0.565841
738 2 0.0328966 0.614936 0.562747
789 1 0.20768 0.54155 0.689162
893 1 0.128375 0.721706 0.566976
993 1 0.0289592 0.672401 0.553764
119 2 0.0734098 0.729956 0.699199
39 2 0.334913 0.539703 0.685394
188 2 0.414389 0.585658 0.560119
319 2 0.460652 0.664778 0.685262
443 2 0.417099 0.706066 0.56124
544 2 0.334495 0.665177 0.6879
663 2 0.292551 0.583066 0.561026
814 1 0.458632 0.541066 0.689635
918 1 0.289181 0.709092 0.560806
64 2 0.583807 0.539829 0.685351
213 2 0.66457 0.585517 0.560941
344 2 0.707281 0.665218 0.684972
468 2 0.665485 0.70762 0.561485
569 2 0.583876 0.665035 0.688557
688 2 0.539628 0.584272 0.56147
839 1 0.707911 0.541188 0.689728
943 1 0.539369 0.710844 0.560904
89 2 0.821446 0.537802 0.685523
138 2 0.941407 0.539158 0.562954
238 2 0.817136 0.592797 0.55732
269 2 0.95568 0.663775 0.682646
369 2 0.840173 0.663055 0.687288
393 2 0.945796 0.746057 0.56827
493 2 0.824868 0.691338 0.557192
594 2 0.82899 0.665318 0.683021
713 2 0.786249 0.583125 0.56213
764 1 0.968029 0.555099 0.67568
864 1 0.865302 0.541305 0.688422
968 1 0.791742 0.709643 0.561695
19 2 0.187186 0.788275 0.676707
168 2 0.178444 0.815734 0.553363
299 2 0.203784 0.821512 0.679114
403 2 0.15413 0.966833 0.553426
423 2 0.180275 0.847131 0.560694
504 2 0.164317 0.953277 0.664433
524 2 0.189687 0.8266 0.681672
604 2 0.0695768 0.941903 0.714947
624 2 0.0317449 0.87549 0.641546
643 2 0.14819 0.817823 0.560875
743 2 0.0266065 0.862791 0.57076
794 1 0.209857 0.790633 0.685434
878 1 0.140689 0.969224 0.566946
898 1 0.142342 0.856177 0.558567
978 1 0.0205967 0.963184 0.58717
998 1 0.0245487 0.855975 0.563811
404 2 0.16373 0.951875 0.747411
279 2 0.285841 0.941061 0.690109
44 2 0.334869 0.77866 0.683454
193 2 0.41556 0.820236 0.556792
304 2 0.446706 0.935032 0.695863
324 2 0.491146 0.82192 0.680243
428 2 0.400741 0.973743 0.565676
448 2 0.421003 0.846864 0.564847
529 2 0.288914 0.940186 0.68835
549 2 0.345956 0.809094 0.68023
668 2 0.294574 0.827123 0.56182
819 1 0.457791 0.793694 0.689205
903 1 0.315869 0.977539 0.566804
923 1 0.290699 0.868437 0.562698
69 2 0.580631 0.778246 0.686088
218 2 0.666771 0.817596 0.557318
329 2 0.670465 0.93876 0.69127
349 2 0.740237 0.829844 0.678653
453 2 0.637704 0.970002 0.56574
473 2 0.678632 0.843995 0.565207
554 2 0.598186 0.937026 0.689667
574 2 0.559214 0.817032 0.680886
693 2 0.538401 0.826542 0.562921
844 1 0.708072 0.79173 0.688737
928 1 0.572891 0.981253 0.556672
948 1 0.533994 0.874947 0.563503
94 2 0.81444 0.773219 0.683484
143 2 0.949115 0.750221 0.567076
243 2 0.82129 0.823796 0.541567
254 2 0.925449 0.968027 0.603968
274 2 0.964333 0.790303 0.669184
354 2 0.839978 0.939503 0.685198
374 2 0.844475 0.831377 0.689104
378 2 0.924202 0.967074 0.606346
398 2 0.940258 0.863429 0.548554
478 2 0.807532 0.953887 0.566598
498 2 0.822969 0.83139 0.546615
579 2 0.83823 0.939763 0.683937
599 2 0.818254 0.818313 0.67453
718 2 0.786773 0.82561 0.563387
769 1 0.991225 0.797551 0.680889
869 1 0.853935 0.78547 0.684604
953 1 0.806248 0.959703 0.570336
973 1 0.770124 0.859451 0.562408
399 2 0.930933 0.982159 0.746094
1 2 0.116625 0.0387653 0.917196
5 2 0.139605 0.154448 0.873515
21 2 0.174527 0.00054905 0.953204
25 2 0.189894 0.0366275 0.82804
101 2 0.0928854 0.0966455 0.926572
105 2 0.104264 0.018028 0.866575
121 2 0.0627429 0.0868059 0.981713
125 2 0.0564434 0.0489492 0.837879
154 2 0.191074 0.174055 0.788156
174 2 0.226414 0.0500985 0.820222
281 2 0.244675 0.226966 0.936494
285 2 0.211766 0.144768 0.858265
409 2 0.192767 0.212566 0.796023
506 2 0.144393 0.221302 0.972593
510 2 0.168572 0.169998 0.829483
606 2 0.0648289 0.201571 0.92035
629 2 0.166778 0.169682 0.827489
649 2 0.107147 0.0657007 0.758997
749 2 0.0412886 0.0410791 0.819383
780 1 0.212507 0.143215 0.859625
796 1 0.204255 0.00835911 0.944607
800 1 0.199987 0.0358633 0.827548
884 1 0.16119 0.222236 0.805138
984 1 0.0480365 0.213405 0.762046
776 1 0.267441 0.124768 0.951627
26 2 0.300278 0.130878 0.937558
30 2 0.358035 0.145448 0.846051
46 2 0.347288 0.0402577 0.973096
50 2 0.304677 0.050235 0.814864
179 2 0.405965 0.171732 0.794557
199 2 0.445959 0.0492969 0.814152
310 2 0.42144 0.153881 0.866129
434 2 0.419919 0.211436 0.804291
531 2 0.294954 0.227033 0.943528
535 2 0.35603 0.147328 0.844432
654 2 0.315504 0.181714 0.810954
674 2 0.286074 0.0457435 0.814215
801 1 0.492977 0.109034 0.955432
805 1 0.439319 0.14274 0.876593
821 1 0.493054 0.0315469 0.927394
825 1 0.466045 0.0328692 0.839819
909 1 0.292892 0.207434 0.812777
306 2 0.505347 0.219176 0.942103
51 2 0.547038 0.133698 0.932816
55 2 0.607031 0.146466 0.848891
71 2 0.594696 0.049608 0.970205
75 2 0.570498 0.0493742 0.813992
204 2 0.656261 0.171977 0.794551
224 2 0.681281 0.0448104 0.807843
331 2 0.73945 0.241395 0.934759
335 2 0.669157 0.157412 0.869503
459 2 0.666299 0.210974 0.802555
556 2 0.530002 0.207388 0.944084
560 2 0.607313 0.148344 0.845617
679 2 0.553131 0.180719 0.806856
699 2 0.537553 0.0418156 0.812915
826 1 0.718873 0.109538 0.961866
830 1 0.704617 0.134693 0.870199
850 1 0.70578 0.031013 0.846097
934 1 0.543224 0.207706 0.814098
846 1 0.751999 0.028591 0.930943
76 2 0.815502 0.168403 0.938405
80 2 0.837298 0.143957 0.847032
96 2 0.802604 0.0502816 0.942239
100 2 0.821534 0.0545606 0.828933
129 2 0.951079 0.175758 0.806212
229 2 0.859156 0.153996 0.82963
249 2 0.797875 0.0536182 0.810667
256 2 0.982231 0.211722 0.970294
260 2 0.952814 0.171088 0.797724
356 2 0.839922 0.21123 0.949505
360 2 0.855512 0.148851 0.848011
484 2 0.828861 0.186823 0.798668
581 2 0.816173 0.188093 0.943843
585 2 0.851237 0.158504 0.836928
704 2 0.772346 0.188214 0.807509
724 2 0.786654 0.049962 0.810831
751 1 0.998997 0.0685203 0.987173
755 1 0.970474 0.135521 0.891025
775 1 0.969409 0.0401811 0.88974
851 1 0.930157 0.0944487 0.970406
855 1 0.862494 0.146377 0.846314
871 1 0.907715 0.0337491 0.92368
875 1 0.842001 0.0363308 0.852667
959 1 0.790316 0.206051 0.81723
610 2 0.0637448 0.270912 0.862644
6 2 0.219924 0.281474 0.949285
10 2 0.166597 0.33054 0.836073
106 2 0.0391043 0.307941 0.962362
110 2 0.0615206 0.26457 0.859671
159 2 0.185578 0.328433 0.808377
286 2 0.234732 0.469048 0.942427
290 2 0.218117 0.388027 0.84968
414 2 0.187214 0.454225 0.789688
511 2 0.161576 0.470303 0.99591
515 2 0.170521 0.375051 0.837526
611 2 0.0708229 0.410026 0.95832
615 2 0.0596676 0.411809 0.852164
634 2 0.165632 0.330683 0.824844
734 2 0.0342791 0.345413 0.754347
781 1 0.216068 0.273901 0.955149
785 1 0.222323 0.317255 0.844959
889 1 0.149816 0.464373 0.803093
989 1 0.0402675 0.460357 0.79762
11 2 0.208397 0.499861 0.951567
31 2 0.319787 0.259668 0.950484
35 2 0.333757 0.327616 0.840171
184 2 0.416638 0.331282 0.808548
315 2 0.415974 0.385998 0.874798
439 2 0.418364 0.460552 0.802413
536 2 0.30744 0.465895 0.95088
540 2 0.347744 0.398292 0.842466
659 2 0.296501 0.332118 0.80784
806 1 0.472727 0.281646 0.975959
810 1 0.457281 0.308851 0.867579
914 1 0.292734 0.457389 0.814904
36 2 0.330234 0.495839 0.954465
311 2 0.511743 0.457347 0.937169
56 2 0.557212 0.257977 0.953442
60 2 0.589484 0.323869 0.839723
209 2 0.66583 0.331918 0.806412
340 2 0.664319 0.387037 0.874196
464 2 0.666808 0.460072 0.803189
561 2 0.535029 0.454231 0.940134
565 2 0.612828 0.396453 0.839728
684 2 0.538191 0.334915 0.80724
831 1 0.713889 0.285989 0.974749
835 1 0.707744 0.313626 0.864641
939 1 0.54369 0.458705 0.813265
61 2 0.563426 0.499359 0.950438
384 2 0.944341 0.260519 0.8178
336 2 0.751875 0.456703 0.945542
81 2 0.790582 0.258536 0.949887
85 2 0.821 0.327201 0.840221
134 2 0.946687 0.290993 0.81381
234 2 0.818091 0.344486 0.802694
261 2 0.945969 0.419315 0.982149
265 2 0.953745 0.456247 0.814145
361 2 0.866984 0.472715 0.948013
365 2 0.860728 0.396427 0.850633
389 2 0.946001 0.454938 0.816109
489 2 0.814264 0.439603 0.789289
586 2 0.771871 0.471329 0.952044
590 2 0.857467 0.398802 0.848407
709 2 0.786875 0.334926 0.808452
756 1 0.965996 0.259358 0.953332
760 1 0.960312 0.290644 0.840349
856 1 0.878783 0.268117 0.967188
860 1 0.859099 0.333203 0.874771
964 1 0.792862 0.458076 0.81329
86 2 0.794807 0.496913 0.960699
15 2 0.170343 0.577864 0.842241
111 2 0.0513237 0.524929 0.943503
115 2 0.0692133 0.560415 0.844419
164 2 0.183714 0.574739 0.807341
291 2 0.245794 0.708175 0.94187
295 2 0.220849 0.642865 0.842056
419 2 0.193484 0.695135 0.792106
516 2 0.144493 0.689356 0.988423
520 2 0.17464 0.620537 0.841726
616 2 0.0519507 0.703765 0.9534
620 2 0.0577148 0.654518 0.854854
639 2 0.174339 0.583768 0.821741
739 2 0.0409235 0.57127 0.775489
786 1 0.209607 0.508492 0.966368
790 1 0.22332 0.565183 0.855742
894 1 0.161365 0.716823 0.79263
994 1 0.0464469 0.708216 0.797741
116 2 0.0471193 0.736455 0.94874
120 2 0.0644972 0.721889 0.835792
40 2 0.332072 0.567201 0.842349
189 2 0.416566 0.580003 0.810672
320 2 0.415227 0.636181 0.87368
444 2 0.421249 0.705176 0.803779
541 2 0.303878 0.698562 0.953742
545 2 0.349434 0.653773 0.83781
664 2 0.296653 0.579268 0.807331
811 1 0.468851 0.528975 0.975383
815 1 0.457708 0.554585 0.866974
919 1 0.294437 0.704154 0.816815
316 2 0.511501 0.698562 0.938605
65 2 0.590854 0.567719 0.838247
214 2 0.665777 0.579808 0.810161
341 2 0.744914 0.699744 0.944498
345 2 0.662363 0.63815 0.873096
469 2 0.669496 0.704313 0.803783
566 2 0.528288 0.69051 0.941929
570 2 0.612972 0.653641 0.839127
689 2 0.538839 0.582973 0.806506
836 1 0.718096 0.528249 0.97906
840 1 0.706076 0.554893 0.869301
944 1 0.544258 0.706743 0.815783
90 2 0.816648 0.566013 0.843254
139 2 0.946685 0.551104 0.811742
239 2 0.81948 0.584892 0.799785
266 2 0.94794 0.632597 0.980018
270 2 0.946752 0.682839 0.811178
366 2 0.889489 0.708481 0.948795