LAMMPS data file. CGCMM style. atom_style full generated by VMD/TopoTools v1.5 on Mon Dec 01 16:08:57 MSK 2025
 801 atoms
 1122 bonds
 0 angles
 0 dihedrals
 0 impropers
 2 atom types
 1 bond types
 0 angle types
 0 dihedral types
 0 improper types
 -3.579999 10.720001  xlo xhi
 -0.966578 13.333422  ylo yhi
 0.000000 46.500000  zlo zhi

# Pair Coeffs
#
# 1  Co
# 2  Ta

# Bond Coeffs
#
# 1  

 Masses

 1 58.933201 # Co
 2 180.947906 # Ta

 Atoms

1 1 1 0.000000 0.000000 2.748187 1.939670 # Co 
2 1 1 0.000000 7.140000 9.618656 44.560329 # Co 
3 1 1 0.000000 4.760000 10.992750 1.939670 # Co 
4 1 1 0.000000 2.380000 1.374094 44.560329 # Co 
5 1 1 0.000000 -4.760000 10.992750 1.939670 # Co 
6 1 1 0.000000 11.900001 1.374094 44.560329 # Co 
7 1 1 0.000000 7.140000 9.618656 9.689670 # Co 
8 1 1 0.000000 0.000000 2.748187 5.810330 # Co 
9 1 1 0.000000 2.380000 1.374094 9.689670 # Co 
10 1 1 0.000000 4.760000 10.992750 5.810330 # Co 
11 1 1 0.000000 11.900001 1.374094 9.689670 # Co 
12 1 1 0.000000 -4.760000 10.992750 5.810330 # Co 
13 1 1 0.000000 0.000000 2.748187 17.439671 # Co 
14 1 1 0.000000 7.140000 9.618656 29.060329 # Co 
15 1 1 0.000000 4.760000 10.992750 17.439671 # Co 
16 1 1 0.000000 2.380000 1.374094 29.060329 # Co 
17 1 1 0.000000 -4.760000 10.992750 17.439671 # Co 
18 1 1 0.000000 11.900001 1.374094 29.060329 # Co 
19 1 1 0.000000 7.140000 9.618656 25.189671 # Co 
20 1 1 0.000000 0.000000 2.748187 36.810329 # Co 
21 1 1 0.000000 2.380000 1.374094 25.189671 # Co 
22 1 1 0.000000 4.760000 10.992750 36.810329 # Co 
23 1 1 0.000000 11.900001 1.374094 25.189671 # Co 
24 1 1 0.000000 -4.760000 10.992750 36.810329 # Co 
25 1 1 0.000000 0.000000 2.748187 32.939671 # Co 
26 1 1 0.000000 7.140000 9.618656 13.560330 # Co 
27 1 1 0.000000 4.760000 10.992750 32.939671 # Co 
28 1 1 0.000000 2.380000 1.374094 13.560330 # Co 
29 1 1 0.000000 -4.760000 10.992750 32.939671 # Co 
30 1 1 0.000000 11.900001 1.374094 13.560330 # Co 
31 1 1 0.000000 7.140000 9.618656 40.689671 # Co 
32 1 1 0.000000 0.000000 2.748187 21.310329 # Co 
33 1 1 0.000000 2.380000 1.374094 40.689671 # Co 
34 1 1 0.000000 4.760000 10.992750 21.310329 # Co 
35 1 1 0.000000 11.900001 1.374094 40.689671 # Co 
36 1 1 0.000000 -4.760000 10.992750 21.310329 # Co 
37 1 1 0.000000 -2.380000 6.870469 1.939670 # Co 
38 1 1 0.000000 9.520000 5.496375 44.560329 # Co 
39 1 1 0.000000 2.380000 6.870469 1.939670 # Co 
40 1 1 0.000000 4.760000 5.496375 44.560329 # Co 
41 1 1 0.000000 0.000000 10.992750 1.939670 # Co 
42 1 1 0.000000 7.140000 1.374094 44.560329 # Co 
43 1 1 0.000000 9.520000 5.496375 9.689670 # Co 
44 1 1 0.000000 -2.380000 6.870469 5.810330 # Co 
45 1 1 0.000000 4.760000 5.496375 9.689670 # Co 
46 1 1 0.000000 2.380000 6.870469 5.810330 # Co 
47 1 1 0.000000 7.140000 1.374094 9.689670 # Co 
48 1 1 0.000000 0.000000 10.992750 5.810330 # Co 
49 1 1 0.000000 -2.380000 6.870469 17.439671 # Co 
50 1 1 0.000000 9.520000 5.496375 29.060329 # Co 
51 1 1 0.000000 2.380000 6.870469 17.439671 # Co 
52 1 1 0.000000 4.760000 5.496375 29.060329 # Co 
53 1 1 0.000000 0.000000 10.992750 17.439671 # Co 
54 1 1 0.000000 7.140000 1.374094 29.060329 # Co 
55 1 1 0.000000 9.520000 5.496375 25.189671 # Co 
56 1 1 0.000000 -2.380000 6.870469 36.810329 # Co 
57 1 1 0.000000 4.760000 5.496375 25.189671 # Co 
58 1 1 0.000000 2.380000 6.870469 36.810329 # Co 
59 1 1 0.000000 7.140000 1.374094 25.189671 # Co 
60 1 1 0.000000 0.000000 10.992750 36.810329 # Co 
61 1 1 0.000000 -2.380000 6.870469 32.939671 # Co 
62 1 1 0.000000 9.520000 5.496375 13.560330 # Co 
63 1 1 0.000000 2.380000 6.870469 32.939671 # Co 
64 1 1 0.000000 4.760000 5.496375 13.560330 # Co 
65 1 1 0.000000 0.000000 10.992750 32.939671 # Co 
66 1 1 0.000000 7.140000 1.374094 13.560330 # Co 
67 1 1 0.000000 9.520000 5.496375 40.689671 # Co 
68 1 1 0.000000 -2.380000 6.870469 21.310329 # Co 
69 1 1 0.000000 4.760000 5.496375 40.689671 # Co 
70 1 1 0.000000 2.380000 6.870469 21.310329 # Co 
71 1 1 0.000000 7.140000 1.374094 40.689671 # Co 
72 1 1 0.000000 0.000000 10.992750 21.310329 # Co 
73 1 1 0.000000 4.760000 2.748187 1.939670 # Co 
74 1 1 0.000000 2.380000 9.618656 44.560329 # Co 
75 1 1 0.000000 9.520000 2.748187 1.939670 # Co 
76 1 1 0.000000 -2.380000 9.618656 44.560329 # Co 
77 1 1 0.000000 7.140000 6.870469 1.939670 # Co 
78 1 1 0.000000 -0.000000 5.496375 44.560329 # Co 
79 1 1 0.000000 2.380000 9.618656 9.689670 # Co 
80 1 1 0.000000 4.760000 2.748187 5.810330 # Co 
81 1 1 0.000000 -2.380000 9.618656 9.689670 # Co 
82 1 1 0.000000 9.520000 2.748187 5.810330 # Co 
83 1 1 0.000000 -0.000000 5.496375 9.689670 # Co 
84 1 1 0.000000 7.140000 6.870469 5.810330 # Co 
85 1 1 0.000000 4.760000 2.748187 17.439671 # Co 
86 1 1 0.000000 2.380000 9.618656 29.060329 # Co 
87 1 1 0.000000 9.520000 2.748187 17.439671 # Co 
88 1 1 0.000000 -2.380000 9.618656 29.060329 # Co 
89 1 1 0.000000 7.140000 6.870469 17.439671 # Co 
90 1 1 0.000000 -0.000000 5.496375 29.060329 # Co 
91 1 1 0.000000 2.380000 9.618656 25.189671 # Co 
92 1 1 0.000000 4.760000 2.748187 36.810329 # Co 
93 1 1 0.000000 -2.380000 9.618656 25.189671 # Co 
94 1 1 0.000000 9.520000 2.748187 36.810329 # Co 
95 1 1 0.000000 -0.000000 5.496375 25.189671 # Co 
96 1 1 0.000000 7.140000 6.870469 36.810329 # Co 
97 1 1 0.000000 4.760000 2.748187 32.939671 # Co 
98 1 1 0.000000 2.380000 9.618656 13.560330 # Co 
99 1 1 0.000000 9.520000 2.748187 32.939671 # Co 
100 1 1 0.000000 -2.380000 9.618656 13.560330 # Co 
101 1 1 0.000000 7.140000 6.870469 32.939671 # Co 
102 1 1 0.000000 -0.000000 5.496375 13.560330 # Co 
103 1 1 0.000000 2.380000 9.618656 40.689671 # Co 
104 1 1 0.000000 4.760000 2.748187 21.310329 # Co 
105 1 1 0.000000 -2.380000 9.618656 40.689671 # Co 
106 1 1 0.000000 9.520000 2.748187 21.310329 # Co 
107 1 1 0.000000 -0.000000 5.496375 40.689671 # Co 
108 1 1 0.000000 7.140000 6.870469 21.310329 # Co 
109 1 2 0.000000 0.000000 0.000000 1.457000 # Ta 
110 1 2 0.000000 -7.140000 12.366843 1.457000 # Ta 
111 1 2 0.000000 14.280001 0.000000 1.457000 # Ta 
112 1 2 0.000000 7.140000 12.366843 1.457000 # Ta 
113 1 2 0.000000 0.000000 0.000000 45.042999 # Ta 
114 1 2 0.000000 -7.140000 12.366843 45.042999 # Ta 
115 1 2 0.000000 14.280001 0.000000 45.042999 # Ta 
116 1 2 0.000000 7.140000 12.366843 45.042999 # Ta 
117 1 2 0.000000 0.000000 0.000000 9.207000 # Ta 
118 1 2 0.000000 -7.140000 12.366843 9.207000 # Ta 
119 1 2 0.000000 14.280001 0.000000 9.207000 # Ta 
120 1 2 0.000000 7.140000 12.366843 9.207000 # Ta 
121 1 2 0.000000 0.000000 0.000000 6.293000 # Ta 
122 1 2 0.000000 -7.140000 12.366843 6.293000 # Ta 
123 1 2 0.000000 14.280001 0.000000 6.293000 # Ta 
124 1 2 0.000000 7.140000 12.366843 6.293000 # Ta 
125 1 2 0.000000 0.000000 0.000000 16.957001 # Ta 
126 1 2 0.000000 -7.140000 12.366843 16.957001 # Ta 
127 1 2 0.000000 14.280001 0.000000 16.957001 # Ta 
128 1 2 0.000000 7.140000 12.366843 16.957001 # Ta 
129 1 2 0.000000 0.000000 0.000000 29.542999 # Ta 
130 1 2 0.000000 -7.140000 12.366843 29.542999 # Ta 
131 1 2 0.000000 14.280001 0.000000 29.542999 # Ta 
132 1 2 0.000000 7.140000 12.366843 29.542999 # Ta 
133 1 2 0.000000 0.000000 0.000000 24.707001 # Ta 
134 1 2 0.000000 -7.140000 12.366843 24.707001 # Ta 
135 1 2 0.000000 14.280001 0.000000 24.707001 # Ta 
136 1 2 0.000000 7.140000 12.366843 24.707001 # Ta 
137 1 2 0.000000 0.000000 0.000000 37.292999 # Ta 
138 1 2 0.000000 -7.140000 12.366843 37.292999 # Ta 
139 1 2 0.000000 14.280001 0.000000 37.292999 # Ta 
140 1 2 0.000000 7.140000 12.366843 37.292999 # Ta 
141 1 2 0.000000 0.000000 0.000000 32.457001 # Ta 
142 1 2 0.000000 -7.140000 12.366843 32.457001 # Ta 
143 1 2 0.000000 14.280001 0.000000 32.457001 # Ta 
144 1 2 0.000000 7.140000 12.366843 32.457001 # Ta 
145 1 2 0.000000 0.000000 0.000000 14.043000 # Ta 
146 1 2 0.000000 -7.140000 12.366843 14.043000 # Ta 
147 1 2 0.000000 14.280001 0.000000 14.043000 # Ta 
148 1 2 0.000000 7.140000 12.366843 14.043000 # Ta 
149 1 2 0.000000 0.000000 0.000000 40.207001 # Ta 
150 1 2 0.000000 -7.140000 12.366843 40.207001 # Ta 
151 1 2 0.000000 14.280001 0.000000 40.207001 # Ta 
152 1 2 0.000000 7.140000 12.366843 40.207001 # Ta 
153 1 2 0.000000 0.000000 0.000000 21.792999 # Ta 
154 1 2 0.000000 -7.140000 12.366843 21.792999 # Ta 
155 1 2 0.000000 14.280001 0.000000 21.792999 # Ta 
156 1 2 0.000000 7.140000 12.366843 21.792999 # Ta 
157 1 2 0.000000 -2.380000 4.122281 1.457000 # Ta 
158 1 2 0.000000 11.900001 4.122281 1.457000 # Ta 
159 1 2 0.000000 -4.760000 8.244562 45.042999 # Ta 
160 1 2 0.000000 9.520000 8.244562 45.042999 # Ta 
161 1 2 0.000000 4.760000 8.244562 1.457000 # Ta 
162 1 2 0.000000 2.380000 4.122281 45.042999 # Ta 
163 1 2 0.000000 4.760000 0.000000 1.457000 # Ta 
164 1 2 0.000000 -2.380000 12.366843 1.457000 # Ta 
165 1 2 0.000000 9.520000 0.000000 45.042999 # Ta 
166 1 2 0.000000 2.380000 12.366843 45.042999 # Ta 
167 1 2 0.000000 -4.760000 8.244562 9.207000 # Ta 
168 1 2 0.000000 9.520000 8.244562 9.207000 # Ta 
169 1 2 0.000000 -2.380000 4.122281 6.293000 # Ta 
170 1 2 0.000000 11.900001 4.122281 6.293000 # Ta 
171 1 2 0.000000 2.380000 4.122281 9.207000 # Ta 
172 1 2 0.000000 4.760000 8.244562 6.293000 # Ta 
173 1 2 0.000000 9.520000 0.000000 9.207000 # Ta 
174 1 2 0.000000 2.380000 12.366843 9.207000 # Ta 
175 1 2 0.000000 4.760000 0.000000 6.293000 # Ta 
176 1 2 0.000000 -2.380000 12.366843 6.293000 # Ta 
177 1 2 0.000000 4.760000 0.000000 45.042999 # Ta 
178 1 2 0.000000 -2.380000 12.366843 45.042999 # Ta 
179 1 2 0.000000 9.520000 0.000000 1.457000 # Ta 
180 1 2 0.000000 2.380000 12.366843 1.457000 # Ta 
181 1 2 0.000000 4.760000 8.244562 45.042999 # Ta 
182 1 2 0.000000 2.380000 4.122281 1.457000 # Ta 
183 1 2 0.000000 -2.380000 4.122281 45.042999 # Ta 
184 1 2 0.000000 11.900001 4.122281 45.042999 # Ta 
185 1 2 0.000000 -4.760000 8.244562 1.457000 # Ta 
186 1 2 0.000000 9.520000 8.244562 1.457000 # Ta 
187 1 2 0.000000 9.520000 0.000000 6.293000 # Ta 
188 1 2 0.000000 2.380000 12.366843 6.293000 # Ta 
189 1 2 0.000000 4.760000 0.000000 9.207000 # Ta 
190 1 2 0.000000 -2.380000 12.366843 9.207000 # Ta 
191 1 2 0.000000 2.380000 4.122281 6.293000 # Ta 
192 1 2 0.000000 4.760000 8.244562 9.207000 # Ta 
193 1 2 0.000000 -4.760000 8.244562 6.293000 # Ta 
194 1 2 0.000000 9.520000 8.244562 6.293000 # Ta 
195 1 2 0.000000 -2.380000 4.122281 9.207000 # Ta 
196 1 2 0.000000 11.900001 4.122281 9.207000 # Ta 
197 1 2 0.000000 -2.380000 4.122281 16.957001 # Ta 
198 1 2 0.000000 11.900001 4.122281 16.957001 # Ta 
199 1 2 0.000000 -4.760000 8.244562 29.542999 # Ta 
200 1 2 0.000000 9.520000 8.244562 29.542999 # Ta 
201 1 2 0.000000 4.760000 8.244562 16.957001 # Ta 
202 1 2 0.000000 2.380000 4.122281 29.542999 # Ta 
203 1 2 0.000000 4.760000 0.000000 16.957001 # Ta 
204 1 2 0.000000 -2.380000 12.366843 16.957001 # Ta 
205 1 2 0.000000 9.520000 0.000000 29.542999 # Ta 
206 1 2 0.000000 2.380000 12.366843 29.542999 # Ta 
207 1 2 0.000000 -4.760000 8.244562 24.707001 # Ta 
208 1 2 0.000000 9.520000 8.244562 24.707001 # Ta 
209 1 2 0.000000 -2.380000 4.122281 37.292999 # Ta 
210 1 2 0.000000 11.900001 4.122281 37.292999 # Ta 
211 1 2 0.000000 2.380000 4.122281 24.707001 # Ta 
212 1 2 0.000000 4.760000 8.244562 37.292999 # Ta 
213 1 2 0.000000 9.520000 0.000000 24.707001 # Ta 
214 1 2 0.000000 2.380000 12.366843 24.707001 # Ta 
215 1 2 0.000000 4.760000 0.000000 37.292999 # Ta 
216 1 2 0.000000 -2.380000 12.366843 37.292999 # Ta 
217 1 2 0.000000 4.760000 0.000000 29.542999 # Ta 
218 1 2 0.000000 -2.380000 12.366843 29.542999 # Ta 
219 1 2 0.000000 9.520000 0.000000 16.957001 # Ta 
220 1 2 0.000000 2.380000 12.366843 16.957001 # Ta 
221 1 2 0.000000 4.760000 8.244562 29.542999 # Ta 
222 1 2 0.000000 2.380000 4.122281 16.957001 # Ta 
223 1 2 0.000000 -2.380000 4.122281 29.542999 # Ta 
224 1 2 0.000000 11.900001 4.122281 29.542999 # Ta 
225 1 2 0.000000 -4.760000 8.244562 16.957001 # Ta 
226 1 2 0.000000 9.520000 8.244562 16.957001 # Ta 
227 1 2 0.000000 9.520000 0.000000 37.292999 # Ta 
228 1 2 0.000000 2.380000 12.366843 37.292999 # Ta 
229 1 2 0.000000 4.760000 0.000000 24.707001 # Ta 
230 1 2 0.000000 -2.380000 12.366843 24.707001 # Ta 
231 1 2 0.000000 2.380000 4.122281 37.292999 # Ta 
232 1 2 0.000000 4.760000 8.244562 24.707001 # Ta 
233 1 2 0.000000 -4.760000 8.244562 37.292999 # Ta 
234 1 2 0.000000 9.520000 8.244562 37.292999 # Ta 
235 1 2 0.000000 -2.380000 4.122281 24.707001 # Ta 
236 1 2 0.000000 11.900001 4.122281 24.707001 # Ta 
237 1 2 0.000000 -2.380000 4.122281 32.457001 # Ta 
238 1 2 0.000000 11.900001 4.122281 32.457001 # Ta 
239 1 2 0.000000 -4.760000 8.244562 14.043000 # Ta 
240 1 2 0.000000 9.520000 8.244562 14.043000 # Ta 
241 1 2 0.000000 4.760000 8.244562 32.457001 # Ta 
242 1 2 0.000000 2.380000 4.122281 14.043000 # Ta 
243 1 2 0.000000 4.760000 0.000000 32.457001 # Ta 
244 1 2 0.000000 -2.380000 12.366843 32.457001 # Ta 
245 1 2 0.000000 9.520000 0.000000 14.043000 # Ta 
246 1 2 0.000000 2.380000 12.366843 14.043000 # Ta 
247 1 2 0.000000 -4.760000 8.244562 40.207001 # Ta 
248 1 2 0.000000 9.520000 8.244562 40.207001 # Ta 
249 1 2 0.000000 -2.380000 4.122281 21.792999 # Ta 
250 1 2 0.000000 11.900001 4.122281 21.792999 # Ta 
251 1 2 0.000000 2.380000 4.122281 40.207001 # Ta 
252 1 2 0.000000 4.760000 8.244562 21.792999 # Ta 
253 1 2 0.000000 9.520000 0.000000 40.207001 # Ta 
254 1 2 0.000000 2.380000 12.366843 40.207001 # Ta 
255 1 2 0.000000 4.760000 0.000000 21.792999 # Ta 
256 1 2 0.000000 -2.380000 12.366843 21.792999 # Ta 
257 1 2 0.000000 4.760000 0.000000 14.043000 # Ta 
258 1 2 0.000000 -2.380000 12.366843 14.043000 # Ta 
259 1 2 0.000000 9.520000 0.000000 32.457001 # Ta 
260 1 2 0.000000 2.380000 12.366843 32.457001 # Ta 
261 1 2 0.000000 4.760000 8.244562 14.043000 # Ta 
262 1 2 0.000000 2.380000 4.122281 32.457001 # Ta 
263 1 2 0.000000 -2.380000 4.122281 14.043000 # Ta 
264 1 2 0.000000 11.900001 4.122281 14.043000 # Ta 
265 1 2 0.000000 -4.760000 8.244562 32.457001 # Ta 
266 1 2 0.000000 9.520000 8.244562 32.457001 # Ta 
267 1 2 0.000000 9.520000 0.000000 21.792999 # Ta 
268 1 2 0.000000 2.380000 12.366843 21.792999 # Ta 
269 1 2 0.000000 4.760000 0.000000 40.207001 # Ta 
270 1 2 0.000000 -2.380000 12.366843 40.207001 # Ta 
271 1 2 0.000000 2.380000 4.122281 21.792999 # Ta 
272 1 2 0.000000 4.760000 8.244562 40.207001 # Ta 
273 1 2 0.000000 -4.760000 8.244562 21.792999 # Ta 
274 1 2 0.000000 9.520000 8.244562 21.792999 # Ta 
275 1 2 0.000000 -2.380000 4.122281 40.207001 # Ta 
276 1 2 0.000000 11.900001 4.122281 40.207001 # Ta 
277 1 2 0.000000 0.000000 8.244562 1.457000 # Ta 
278 1 2 0.000000 7.140000 4.122281 45.042999 # Ta 
279 1 2 0.000000 7.140000 4.122281 9.207000 # Ta 
280 1 2 0.000000 0.000000 8.244562 6.293000 # Ta 
281 1 2 0.000000 0.000000 8.244562 16.957001 # Ta 
282 1 2 0.000000 7.140000 4.122281 29.542999 # Ta 
283 1 2 0.000000 7.140000 4.122281 24.707001 # Ta 
284 1 2 0.000000 0.000000 8.244562 37.292999 # Ta 
285 1 2 0.000000 0.000000 8.244562 32.457001 # Ta 
286 1 2 0.000000 7.140000 4.122281 14.043000 # Ta 
287 1 2 0.000000 7.140000 4.122281 40.207001 # Ta 
288 1 2 0.000000 0.000000 8.244562 21.792999 # Ta 
289 1 2 0.000000 7.140000 4.122281 1.457000 # Ta 
290 1 2 0.000000 0.000000 8.244562 45.042999 # Ta 
291 1 2 0.000000 0.000000 8.244562 9.207000 # Ta 
292 1 2 0.000000 7.140000 4.122281 6.293000 # Ta 
293 1 2 0.000000 7.140000 4.122281 16.957001 # Ta 
294 1 2 0.000000 0.000000 8.244562 29.542999 # Ta 
295 1 2 0.000000 0.000000 8.244562 24.707001 # Ta 
296 1 2 0.000000 7.140000 4.122281 37.292999 # Ta 
297 1 2 0.000000 7.140000 4.122281 32.457001 # Ta 
298 1 2 0.000000 0.000000 8.244562 14.043000 # Ta 
299 1 2 0.000000 0.000000 8.244562 40.207001 # Ta 
300 1 2 0.000000 7.140000 4.122281 21.792999 # Ta 
301 1 1 0.000000 0.000000 1.354499 3.875000 # Co 
302 1 1 0.000000 7.140000 11.012344 42.625000 # Co 
303 1 1 0.000000 5.966970 11.689594 3.875000 # Co 
304 1 1 0.000000 1.173031 0.677250 42.625000 # Co 
305 1 1 0.000000 -5.966970 11.689594 3.875000 # Co 
306 1 1 0.000000 13.106970 0.677250 42.625000 # Co 
307 1 1 0.000000 7.140000 11.012344 11.625000 # Co 
308 1 1 0.000000 1.173031 0.677250 11.625000 # Co 
309 1 1 0.000000 13.106970 0.677250 11.625000 # Co 
310 1 1 0.000000 0.000000 1.354499 19.375000 # Co 
311 1 1 0.000000 7.140000 11.012344 27.125000 # Co 
312 1 1 0.000000 5.966970 11.689594 19.375000 # Co 
313 1 1 0.000000 1.173031 0.677250 27.125000 # Co 
314 1 1 0.000000 -5.966970 11.689594 19.375000 # Co 
315 1 1 0.000000 13.106970 0.677250 27.125000 # Co 
316 1 1 0.000000 0.000000 1.354499 34.875000 # Co 
317 1 1 0.000000 5.966970 11.689594 34.875000 # Co 
318 1 1 0.000000 -5.966970 11.689594 34.875000 # Co 
319 1 1 0.000000 -2.380000 5.476780 3.875000 # Co 
320 1 1 0.000000 9.520000 6.890063 42.625000 # Co 
321 1 1 0.000000 3.586970 7.567313 3.875000 # Co 
322 1 1 0.000000 3.553031 4.799531 42.625000 # Co 
323 1 1 0.000000 -1.206969 11.689594 3.875000 # Co 
324 1 1 0.000000 8.346970 0.677250 42.625000 # Co 
325 1 1 0.000000 9.520000 6.890063 11.625000 # Co 
326 1 1 0.000000 3.553031 4.799531 11.625000 # Co 
327 1 1 0.000000 8.346970 0.677250 11.625000 # Co 
328 1 1 0.000000 5.933031 0.677250 42.625000 # Co 
329 1 1 0.000000 1.206969 11.689594 3.875000 # Co 
330 1 1 0.000000 4.760000 6.890063 42.625000 # Co 
331 1 1 0.000000 2.380000 5.476780 3.875000 # Co 
332 1 1 0.000000 10.726970 4.799531 42.625000 # Co 
333 1 1 0.000000 -3.586970 7.567313 3.875000 # Co 
334 1 1 0.000000 5.933031 0.677250 11.625000 # Co 
335 1 1 0.000000 4.760000 6.890063 11.625000 # Co 
336 1 1 0.000000 10.726970 4.799531 11.625000 # Co 
337 1 1 0.000000 -2.380000 5.476780 19.375000 # Co 
338 1 1 0.000000 9.520000 6.890063 27.125000 # Co 
339 1 1 0.000000 3.586970 7.567313 19.375000 # Co 
340 1 1 0.000000 3.553031 4.799531 27.125000 # Co 
341 1 1 0.000000 -1.206969 11.689594 19.375000 # Co 
342 1 1 0.000000 8.346970 0.677250 27.125000 # Co 
343 1 1 0.000000 -2.380000 5.476780 34.875000 # Co 
344 1 1 0.000000 3.586970 7.567313 34.875000 # Co 
345 1 1 0.000000 -1.206969 11.689594 34.875000 # Co 
346 1 1 0.000000 5.933031 0.677250 27.125000 # Co 
347 1 1 0.000000 1.206969 11.689594 19.375000 # Co 
348 1 1 0.000000 4.760000 6.890063 27.125000 # Co 
349 1 1 0.000000 2.380000 5.476780 19.375000 # Co 
350 1 1 0.000000 10.726970 4.799531 27.125000 # Co 
351 1 1 0.000000 -3.586970 7.567313 19.375000 # Co 
352 1 1 0.000000 1.206969 11.689594 34.875000 # Co 
353 1 1 0.000000 2.380000 5.476780 34.875000 # Co 
354 1 1 0.000000 -3.586970 7.567313 34.875000 # Co 
355 1 1 0.000000 -4.760000 9.599061 3.875000 # Co 
356 1 1 0.000000 11.900001 2.767782 42.625000 # Co 
357 1 1 0.000000 1.206969 3.445032 3.875000 # Co 
358 1 1 0.000000 5.933031 8.921812 42.625000 # Co 
359 1 1 0.000000 3.553031 11.689594 3.875000 # Co 
360 1 1 0.000000 3.586970 0.677250 42.625000 # Co 
361 1 1 0.000000 11.900001 2.767782 11.625000 # Co 
362 1 1 0.000000 5.933031 8.921812 11.625000 # Co 
363 1 1 0.000000 3.586970 0.677250 11.625000 # Co 
364 1 1 0.000000 10.693031 0.677250 42.625000 # Co 
365 1 1 0.000000 -3.553031 11.689594 3.875000 # Co 
366 1 1 0.000000 2.380000 2.767782 42.625000 # Co 
367 1 1 0.000000 4.760000 9.599061 3.875000 # Co 
368 1 1 0.000000 8.346970 8.921812 42.625000 # Co 
369 1 1 0.000000 -1.206969 3.445032 3.875000 # Co 
370 1 1 0.000000 10.693031 0.677250 11.625000 # Co 
371 1 1 0.000000 2.380000 2.767782 11.625000 # Co 
372 1 1 0.000000 8.346970 8.921812 11.625000 # Co 
373 1 1 0.000000 -4.760000 9.599061 19.375000 # Co 
374 1 1 0.000000 11.900001 2.767782 27.125000 # Co 
375 1 1 0.000000 1.206969 3.445032 19.375000 # Co 
376 1 1 0.000000 5.933031 8.921812 27.125000 # Co 
377 1 1 0.000000 3.553031 11.689594 19.375000 # Co 
378 1 1 0.000000 3.586970 0.677250 27.125000 # Co 
379 1 1 0.000000 -4.760000 9.599061 34.875000 # Co 
380 1 1 0.000000 1.206969 3.445032 34.875000 # Co 
381 1 1 0.000000 3.553031 11.689594 34.875000 # Co 
382 1 1 0.000000 10.693031 0.677250 27.125000 # Co 
383 1 1 0.000000 -3.553031 11.689594 19.375000 # Co 
384 1 1 0.000000 2.380000 2.767782 27.125000 # Co 
385 1 1 0.000000 4.760000 9.599061 19.375000 # Co 
386 1 1 0.000000 8.346970 8.921812 27.125000 # Co 
387 1 1 0.000000 -1.206969 3.445032 19.375000 # Co 
388 1 1 0.000000 -3.553031 11.689594 34.875000 # Co 
389 1 1 0.000000 4.760000 9.599061 34.875000 # Co 
390 1 1 0.000000 -1.206969 3.445032 34.875000 # Co 
391 1 1 0.000000 4.760000 1.354499 3.875000 # Co 
392 1 1 0.000000 2.380000 11.012344 42.625000 # Co 
393 1 1 0.000000 10.726970 3.445032 3.875000 # Co 
394 1 1 0.000000 -3.586970 8.921812 42.625000 # Co 
395 1 1 0.000000 5.933031 7.567313 3.875000 # Co 
396 1 1 0.000000 1.206969 4.799531 42.625000 # Co 
397 1 1 0.000000 2.380000 11.012344 11.625000 # Co 
398 1 1 0.000000 -3.586970 8.921812 11.625000 # Co 
399 1 1 0.000000 1.206969 4.799531 11.625000 # Co 
400 1 1 0.000000 -1.206969 4.799531 42.625000 # Co 
401 1 1 0.000000 8.346970 7.567313 3.875000 # Co 
402 1 1 0.000000 -2.380000 11.012344 42.625000 # Co 
403 1 1 0.000000 9.520000 1.354499 3.875000 # Co 
404 1 1 0.000000 3.586970 8.921812 42.625000 # Co 
405 1 1 0.000000 3.553031 3.445032 3.875000 # Co 
406 1 1 0.000000 -1.206969 4.799531 11.625000 # Co 
407 1 1 0.000000 -2.380000 11.012344 11.625000 # Co 
408 1 1 0.000000 3.586970 8.921812 11.625000 # Co 
409 1 1 0.000000 4.760000 1.354499 19.375000 # Co 
410 1 1 0.000000 2.380000 11.012344 27.125000 # Co 
411 1 1 0.000000 10.726970 3.445032 19.375000 # Co 
412 1 1 0.000000 -3.586970 8.921812 27.125000 # Co 
413 1 1 0.000000 5.933031 7.567313 19.375000 # Co 
414 1 1 0.000000 1.206969 4.799531 27.125000 # Co 
415 1 1 0.000000 4.760000 1.354499 34.875000 # Co 
416 1 1 0.000000 10.726970 3.445032 34.875000 # Co 
417 1 1 0.000000 5.933031 7.567313 34.875000 # Co 
418 1 1 0.000000 -1.206969 4.799531 27.125000 # Co 
419 1 1 0.000000 8.346970 7.567313 19.375000 # Co 
420 1 1 0.000000 -2.380000 11.012344 27.125000 # Co 
421 1 1 0.000000 9.520000 1.354499 19.375000 # Co 
422 1 1 0.000000 3.586970 8.921812 27.125000 # Co 
423 1 1 0.000000 3.553031 3.445032 19.375000 # Co 
424 1 1 0.000000 8.346970 7.567313 34.875000 # Co 
425 1 1 0.000000 9.520000 1.354499 34.875000 # Co 
426 1 1 0.000000 3.553031 3.445032 34.875000 # Co 
427 1 1 0.000000 0.000000 9.599061 3.875000 # Co 
428 1 1 0.000000 7.140000 2.767782 42.625000 # Co 
429 1 1 0.000000 -1.173031 7.567313 3.875000 # Co 
430 1 1 0.000000 8.313031 4.799531 42.625000 # Co 
431 1 1 0.000000 1.173031 7.567313 3.875000 # Co 
432 1 1 0.000000 5.966970 4.799531 42.625000 # Co 
433 1 1 0.000000 7.140000 2.767782 11.625000 # Co 
434 1 1 0.000000 8.313031 4.799531 11.625000 # Co 
435 1 1 0.000000 5.966970 4.799531 11.625000 # Co 
436 1 1 0.000000 0.000000 9.599061 19.375000 # Co 
437 1 1 0.000000 7.140000 2.767782 27.125000 # Co 
438 1 1 0.000000 -1.173031 7.567313 19.375000 # Co 
439 1 1 0.000000 8.313031 4.799531 27.125000 # Co 
440 1 1 0.000000 1.173031 7.567313 19.375000 # Co 
441 1 1 0.000000 5.966970 4.799531 27.125000 # Co 
442 1 1 0.000000 0.000000 9.599061 34.875000 # Co 
443 1 1 0.000000 -1.173031 7.567313 34.875000 # Co 
444 1 1 0.000000 1.173031 7.567313 34.875000 # Co 
445 1 1 0.000000 7.140000 5.476780 3.875000 # Co 
446 1 1 0.000000 0.000000 6.890063 42.625000 # Co 
447 1 1 0.000000 5.966970 3.445032 3.875000 # Co 
448 1 1 0.000000 1.173031 8.921812 42.625000 # Co 
449 1 1 0.000000 8.313031 3.445032 3.875000 # Co 
450 1 1 0.000000 -1.173031 8.921812 42.625000 # Co 
451 1 1 0.000000 0.000000 6.890063 11.625000 # Co 
452 1 1 0.000000 1.173031 8.921812 11.625000 # Co 
453 1 1 0.000000 -1.173031 8.921812 11.625000 # Co 
454 1 1 0.000000 7.140000 5.476780 19.375000 # Co 
455 1 1 0.000000 0.000000 6.890063 27.125000 # Co 
456 1 1 0.000000 5.966970 3.445032 19.375000 # Co 
457 1 1 0.000000 1.173031 8.921812 27.125000 # Co 
458 1 1 0.000000 8.313031 3.445032 19.375000 # Co 
459 1 1 0.000000 -1.173031 8.921812 27.125000 # Co 
460 1 1 0.000000 7.140000 5.476780 34.875000 # Co 
461 1 1 0.000000 5.966970 3.445032 34.875000 # Co 
462 1 1 0.000000 8.313031 3.445032 34.875000 # Co 
463 1 2 0.000000 0.000000 2.748187 13.085100 # Ta 
464 1 2 0.000000 7.140000 9.618656 33.414902 # Ta 
465 1 2 0.000000 4.760000 10.992750 13.085100 # Ta 
466 1 2 0.000000 2.380000 1.374094 33.414902 # Ta 
467 1 2 0.000000 -4.760000 10.992750 13.085100 # Ta 
468 1 2 0.000000 11.900001 1.374094 33.414902 # Ta 
469 1 2 0.000000 7.140000 9.618656 20.835100 # Ta 
470 1 2 0.000000 0.000000 2.748187 41.164902 # Ta 
471 1 2 0.000000 2.380000 1.374094 20.835100 # Ta 
472 1 2 0.000000 4.760000 10.992750 41.164902 # Ta 
473 1 2 0.000000 11.900001 1.374094 20.835100 # Ta 
474 1 2 0.000000 -4.760000 10.992750 41.164902 # Ta 
475 1 2 0.000000 0.000000 2.748187 28.585100 # Ta 
476 1 2 0.000000 7.140000 9.618656 17.914900 # Ta 
477 1 2 0.000000 4.760000 10.992750 28.585100 # Ta 
478 1 2 0.000000 2.380000 1.374094 17.914900 # Ta 
479 1 2 0.000000 -4.760000 10.992750 28.585100 # Ta 
480 1 2 0.000000 11.900001 1.374094 17.914900 # Ta 
481 1 2 0.000000 7.140000 9.618656 36.335098 # Ta 
482 1 2 0.000000 0.000000 2.748187 25.664900 # Ta 
483 1 2 0.000000 2.380000 1.374094 36.335098 # Ta 
484 1 2 0.000000 4.760000 10.992750 25.664900 # Ta 
485 1 2 0.000000 11.900001 1.374094 36.335098 # Ta 
486 1 2 0.000000 -4.760000 10.992750 25.664900 # Ta 
487 1 2 0.000000 0.000000 2.748187 44.085098 # Ta 
488 1 2 0.000000 7.140000 9.618656 2.414900 # Ta 
489 1 2 0.000000 4.760000 10.992750 44.085098 # Ta 
490 1 2 0.000000 2.380000 1.374094 2.414900 # Ta 
491 1 2 0.000000 -4.760000 10.992750 44.085098 # Ta 
492 1 2 0.000000 11.900001 1.374094 2.414900 # Ta 
493 1 2 0.000000 7.140000 9.618656 5.335100 # Ta 
494 1 2 0.000000 0.000000 2.748187 10.164900 # Ta 
495 1 2 0.000000 2.380000 1.374094 5.335100 # Ta 
496 1 2 0.000000 4.760000 10.992750 10.164900 # Ta 
497 1 2 0.000000 11.900001 1.374094 5.335100 # Ta 
498 1 2 0.000000 -4.760000 10.992750 10.164900 # Ta 
499 1 2 0.000000 -2.380000 6.870469 13.085100 # Ta 
500 1 2 0.000000 9.520000 5.496375 33.414902 # Ta 
501 1 2 0.000000 2.380000 6.870469 13.085100 # Ta 
502 1 2 0.000000 4.760000 5.496375 33.414902 # Ta 
503 1 2 0.000000 0.000000 10.992750 13.085100 # Ta 
504 1 2 0.000000 7.140000 1.374094 33.414902 # Ta 
505 1 2 0.000000 9.520000 5.496375 20.835100 # Ta 
506 1 2 0.000000 -2.380000 6.870469 41.164902 # Ta 
507 1 2 0.000000 4.760000 5.496375 20.835100 # Ta 
508 1 2 0.000000 2.380000 6.870469 41.164902 # Ta 
509 1 2 0.000000 7.140000 1.374094 20.835100 # Ta 
510 1 2 0.000000 0.000000 10.992750 41.164902 # Ta 
511 1 2 0.000000 -2.380000 6.870469 28.585100 # Ta 
512 1 2 0.000000 9.520000 5.496375 17.914900 # Ta 
513 1 2 0.000000 2.380000 6.870469 28.585100 # Ta 
514 1 2 0.000000 4.760000 5.496375 17.914900 # Ta 
515 1 2 0.000000 0.000000 10.992750 28.585100 # Ta 
516 1 2 0.000000 7.140000 1.374094 17.914900 # Ta 
517 1 2 0.000000 9.520000 5.496375 36.335098 # Ta 
518 1 2 0.000000 -2.380000 6.870469 25.664900 # Ta 
519 1 2 0.000000 4.760000 5.496375 36.335098 # Ta 
520 1 2 0.000000 2.380000 6.870469 25.664900 # Ta 
521 1 2 0.000000 7.140000 1.374094 36.335098 # Ta 
522 1 2 0.000000 0.000000 10.992750 25.664900 # Ta 
523 1 2 0.000000 -2.380000 6.870469 44.085098 # Ta 
524 1 2 0.000000 9.520000 5.496375 2.414900 # Ta 
525 1 2 0.000000 2.380000 6.870469 44.085098 # Ta 
526 1 2 0.000000 4.760000 5.496375 2.414900 # Ta 
527 1 2 0.000000 0.000000 10.992750 44.085098 # Ta 
528 1 2 0.000000 7.140000 1.374094 2.414900 # Ta 
529 1 2 0.000000 9.520000 5.496375 5.335100 # Ta 
530 1 2 0.000000 -2.380000 6.870469 10.164900 # Ta 
531 1 2 0.000000 4.760000 5.496375 5.335100 # Ta 
532 1 2 0.000000 2.380000 6.870469 10.164900 # Ta 
533 1 2 0.000000 7.140000 1.374094 5.335100 # Ta 
534 1 2 0.000000 0.000000 10.992750 10.164900 # Ta 
535 1 2 0.000000 4.760000 2.748187 13.085100 # Ta 
536 1 2 0.000000 2.380000 9.618656 33.414902 # Ta 
537 1 2 0.000000 9.520000 2.748187 13.085100 # Ta 
538 1 2 0.000000 -2.380000 9.618656 33.414902 # Ta 
539 1 2 0.000000 7.140000 6.870469 13.085100 # Ta 
540 1 2 0.000000 -0.000000 5.496375 33.414902 # Ta 
541 1 2 0.000000 2.380000 9.618656 20.835100 # Ta 
542 1 2 0.000000 4.760000 2.748187 41.164902 # Ta 
543 1 2 0.000000 -2.380000 9.618656 20.835100 # Ta 
544 1 2 0.000000 9.520000 2.748187 41.164902 # Ta 
545 1 2 0.000000 -0.000000 5.496375 20.835100 # Ta 
546 1 2 0.000000 7.140000 6.870469 41.164902 # Ta 
547 1 2 0.000000 4.760000 2.748187 28.585100 # Ta 
548 1 2 0.000000 2.380000 9.618656 17.914900 # Ta 
549 1 2 0.000000 9.520000 2.748187 28.585100 # Ta 
550 1 2 0.000000 -2.380000 9.618656 17.914900 # Ta 
551 1 2 0.000000 7.140000 6.870469 28.585100 # Ta 
552 1 2 0.000000 -0.000000 5.496375 17.914900 # Ta 
553 1 2 0.000000 2.380000 9.618656 36.335098 # Ta 
554 1 2 0.000000 4.760000 2.748187 25.664900 # Ta 
555 1 2 0.000000 -2.380000 9.618656 36.335098 # Ta 
556 1 2 0.000000 9.520000 2.748187 25.664900 # Ta 
557 1 2 0.000000 -0.000000 5.496375 36.335098 # Ta 
558 1 2 0.000000 7.140000 6.870469 25.664900 # Ta 
559 1 2 0.000000 4.760000 2.748187 44.085098 # Ta 
560 1 2 0.000000 2.380000 9.618656 2.414900 # Ta 
561 1 2 0.000000 9.520000 2.748187 44.085098 # Ta 
562 1 2 0.000000 -2.380000 9.618656 2.414900 # Ta 
563 1 2 0.000000 7.140000 6.870469 44.085098 # Ta 
564 1 2 0.000000 -0.000000 5.496375 2.414900 # Ta 
565 1 2 0.000000 2.380000 9.618656 5.335100 # Ta 
566 1 2 0.000000 4.760000 2.748187 10.164900 # Ta 
567 1 2 0.000000 -2.380000 9.618656 5.335100 # Ta 
568 1 2 0.000000 9.520000 2.748187 10.164900 # Ta 
569 1 2 0.000000 -0.000000 5.496375 5.335100 # Ta 
570 1 2 0.000000 7.140000 6.870469 10.164900 # Ta 
571 1 1 0.000000 2.380000 0.000000 0.000000 # Co 
572 1 1 0.000000 2.380000 0.000000 46.500000 # Co 
573 1 1 0.000000 -4.760000 12.366843 0.000000 # Co 
574 1 1 0.000000 -4.760000 12.366843 46.500000 # Co 
575 1 1 0.000000 11.900001 0.000000 0.000000 # Co 
576 1 1 0.000000 11.900001 0.000000 46.500000 # Co 
577 1 1 0.000000 4.760000 12.366843 0.000000 # Co 
578 1 1 0.000000 4.760000 12.366843 46.500000 # Co 