ITEM: TIMESTEP
0
ITEM: NUMBER OF ATOMS
801
ITEM: BOX BOUNDS pp pp pp
-3.5799989999999999e+00 1.0720001000000000e+01
-9.6657800000000005e-01 1.3333422000000001e+01
0.0000000000000000e+00 4.6500000000000000e+01
ITEM: ATOMS id type xs ys zs
111 2 0.248951 0.0675929 0.0313333
492 2 0.0825175 0.163683 0.0519333
575 1 0.0825175 0.0675929 0
576 1 0.0825175 0.0675929 0
579 1 0.167133 0.211729 0
580 1 0.167133 0.211729 0
581 1 0.165734 0.211729 0
582 1 0.165734 0.211729 0
109 2 0.25035 0.0675929 0.0313333
490 2 0.416783 0.163683 0.0519333
571 1 0.416783 0.0675929 0
572 1 0.416783 0.0675929 0
589 1 0.333566 0.211729 0
590 1 0.333566 0.211729 0
647 1 0.5 0.211729 0
648 1 0.5 0.211729 0
163 2 0.583217 0.0675929 0.0313333
528 2 0.74965 0.163683 0.0519333
693 1 0.666433 0.211729 0
694 1 0.666433 0.211729 0
767 1 0.74965 0.0675929 0
768 1 0.74965 0.0675929 0
179 2 0.916084 0.0675929 0.0313333
651 1 0.999301 0.211729 0
652 1 0.999301 0.211729 0
701 1 0.832867 0.211729 0
702 1 0.832867 0.211729 0
157 2 0.083916 0.355864 0.0313333
158 2 0.0825175 0.355864 0.0313333
711 1 0.167133 0.5 0
712 1 0.167133 0.5 0
771 1 0.000699231 0.5 0
772 1 0.000699231 0.5 0
1 1 0.25035 0.259774 0.0417133
182 2 0.416783 0.355864 0.0313333
564 2 0.25035 0.451955 0.0519333
641 1 0.25035 0.355864 0
642 1 0.25035 0.355864 0
687 1 0.333566 0.5 0
688 1 0.333566 0.5 0
775 1 0.5 0.5 0
776 1 0.5 0.5 0
73 1 0.583217 0.259774 0.0417133
289 2 0.74965 0.355864 0.0313333
526 2 0.583217 0.451955 0.0519333
689 1 0.666433 0.5 0
690 1 0.666433 0.5 0
705 1 0.583217 0.355864 0
706 1 0.583217 0.355864 0
75 1 0.916084 0.259774 0.0417133
524 2 0.916084 0.451955 0.0519333
685 1 0.916084 0.355864 0
686 1 0.916084 0.355864 0
709 1 0.832867 0.5 0
710 1 0.832867 0.5 0
773 1 0.999301 0.5 0
774 1 0.999301 0.5 0
37 1 0.083916 0.548045 0.0417133
562 2 0.083916 0.740226 0.0519333
683 1 0.083916 0.644136 0
684 1 0.083916 0.644136 0
39 1 0.416783 0.548045 0.0417133
277 2 0.25035 0.644136 0.0313333
560 2 0.416783 0.740226 0.0519333
707 1 0.416783 0.644136 0
708 1 0.416783 0.644136 0
77 1 0.74965 0.548045 0.0417133
161 2 0.583217 0.644136 0.0313333
488 2 0.74965 0.740226 0.0519333
643 1 0.74965 0.644136 0
644 1 0.74965 0.644136 0
185 2 0.917482 0.644136 0.0313333
186 2 0.916084 0.644136 0.0313333
164 2 0.083916 0.932407 0.0313333
649 1 0.000699231 0.788271 0
650 1 0.000699231 0.788271 0
703 1 0.167133 0.788271 0
704 1 0.167133 0.788271 0
41 1 0.25035 0.836317 0.0417133
180 2 0.416783 0.932407 0.0313333
645 1 0.5 0.788271 0
646 1 0.5 0.788271 0
691 1 0.333566 0.788271 0
692 1 0.333566 0.788271 0
769 1 0.25035 0.932407 0
770 1 0.25035 0.932407 0
3 1 0.583217 0.836317 0.0417133
112 2 0.74965 0.932407 0.0313333
577 1 0.583217 0.932407 0
578 1 0.583217 0.932407 0
587 1 0.666433 0.788271 0
588 1 0.666433 0.788271 0
5 1 0.917482 0.836317 0.0417133
110 2 0.751049 0.932407 0.0313333
573 1 0.917482 0.932407 0
574 1 0.917482 0.932407 0
583 1 0.834266 0.788271 0
584 1 0.834266 0.788271 0
585 1 0.832867 0.788271 0
586 1 0.832867 0.788271 0
123 2 0.248951 0.0675929 0.135333
497 2 0.0825175 0.163683 0.114733
121 2 0.25035 0.0675929 0.135333
301 1 0.25035 0.162313 0.0833333
495 2 0.416783 0.163683 0.114733
175 2 0.583217 0.0675929 0.135333
391 1 0.583217 0.162313 0.0833333
533 2 0.74965 0.163683 0.114733
187 2 0.916084 0.0675929 0.135333
403 1 0.916084 0.162313 0.0833333
169 2 0.083916 0.355864 0.135333
170 2 0.0825175 0.355864 0.135333
319 1 0.083916 0.450584 0.0833333
369 1 0.165946 0.308504 0.0833333
393 1 0.000487343 0.308504 0.0833333
8 1 0.25035 0.259774 0.124953
191 2 0.416783 0.355864 0.135333
331 1 0.416783 0.450584 0.0833333
357 1 0.334753 0.308504 0.0833333
405 1 0.498813 0.308504 0.0833333
569 2 0.25035 0.451955 0.114733
80 1 0.583217 0.259774 0.124953
292 2 0.74965 0.355864 0.135333
445 1 0.74965 0.450584 0.0833333
447 1 0.66762 0.308504 0.0833333
531 2 0.583217 0.451955 0.114733
82 1 0.916084 0.259774 0.124953
449 1 0.83168 0.308504 0.0833333
529 2 0.916084 0.451955 0.114733
44 1 0.083916 0.548045 0.124953
429 1 0.168319 0.596776 0.0833333
567 2 0.083916 0.740226 0.114733
46 1 0.416783 0.548045 0.124953
280 2 0.25035 0.644136 0.135333
427 1 0.25035 0.738856 0.0833333
431 1 0.33238 0.596776 0.0833333
565 2 0.416783 0.740226 0.114733
84 1 0.74965 0.548045 0.124953
172 2 0.583217 0.644136 0.135333
321 1 0.501187 0.596776 0.0833333
367 1 0.583217 0.738856 0.0833333
395 1 0.665247 0.596776 0.0833333
493 2 0.74965 0.740226 0.114733
193 2 0.917482 0.644136 0.135333
194 2 0.916084 0.644136 0.135333
333 1 0.999513 0.596776 0.0833333
355 1 0.917482 0.738856 0.0833333
401 1 0.834054 0.596776 0.0833333
176 2 0.083916 0.932407 0.135333
323 1 0.165946 0.885047 0.0833333
365 1 0.00188587 0.885047 0.0833333
48 1 0.25035 0.836317 0.124953
188 2 0.416783 0.932407 0.135333
329 1 0.334753 0.885047 0.0833333
359 1 0.498813 0.885047 0.0833333
10 1 0.583217 0.836317 0.124953
124 2 0.74965 0.932407 0.135333
303 1 0.66762 0.885047 0.0833333
12 1 0.917482 0.836317 0.124953
122 2 0.751049 0.932407 0.135333
305 1 0.833079 0.885047 0.0833333
11 1 0.0825175 0.163683 0.20838
119 2 0.248951 0.0675929 0.198
591 1 0.0825175 0.0675929 0.166667
597 1 0.167133 0.211729 0.166667
598 1 0.165734 0.211729 0.166667
9 1 0.416783 0.163683 0.20838
117 2 0.25035 0.0675929 0.198
593 1 0.416783 0.0675929 0.166667
599 1 0.333566 0.211729 0.166667
655 1 0.5 0.211729 0.166667
47 1 0.74965 0.163683 0.20838
189 2 0.583217 0.0675929 0.198
699 1 0.666433 0.211729 0.166667
777 1 0.74965 0.0675929 0.166667
173 2 0.916084 0.0675929 0.198
657 1 0.999301 0.211729 0.166667
714 1 0.832867 0.211729 0.166667
195 2 0.083916 0.355864 0.198
196 2 0.0825175 0.355864 0.198
717 1 0.167133 0.5 0.166667
779 1 0.000699231 0.5 0.166667
83 1 0.25035 0.451955 0.20838
171 2 0.416783 0.355864 0.198
494 2 0.25035 0.259774 0.2186
654 1 0.25035 0.355864 0.166667
698 1 0.333566 0.5 0.166667
781 1 0.5 0.5 0.166667
45 1 0.583217 0.451955 0.20838
279 2 0.74965 0.355864 0.198
566 2 0.583217 0.259774 0.2186
697 1 0.666433 0.5 0.166667
716 1 0.583217 0.355864 0.166667
43 1 0.916084 0.451955 0.20838
568 2 0.916084 0.259774 0.2186
695 1 0.916084 0.355864 0.166667
718 1 0.832867 0.5 0.166667
780 1 0.999301 0.5 0.166667
81 1 0.083916 0.740226 0.20838
530 2 0.083916 0.548045 0.2186
696 1 0.083916 0.644136 0.166667
79 1 0.416783 0.740226 0.20838
291 2 0.25035 0.644136 0.198
532 2 0.416783 0.548045 0.2186
715 1 0.416783 0.644136 0.166667
7 1 0.74965 0.740226 0.20838
192 2 0.583217 0.644136 0.198
570 2 0.74965 0.548045 0.2186
653 1 0.74965 0.644136 0.166667
167 2 0.917482 0.644136 0.198
168 2 0.916084 0.644136 0.198
190 2 0.083916 0.932407 0.198
658 1 0.000699231 0.788271 0.166667
713 1 0.167133 0.788271 0.166667
174 2 0.416783 0.932407 0.198
534 2 0.25035 0.836317 0.2186
656 1 0.5 0.788271 0.166667
700 1 0.333566 0.788271 0.166667
778 1 0.25035 0.932407 0.166667
120 2 0.74965 0.932407 0.198
496 2 0.583217 0.836317 0.2186
592 1 0.583217 0.932407 0.166667
600 1 0.666433 0.788271 0.166667
118 2 0.751049 0.932407 0.198
498 2 0.917482 0.836317 0.2186
594 1 0.917482 0.932407 0.166667
595 1 0.834266 0.788271 0.166667
596 1 0.832867 0.788271 0.166667
30 1 0.0825175 0.163683 0.29162
147 2 0.248951 0.0675929 0.302
309 1 0.166921 0.114953 0.25
28 1 0.416783 0.163683 0.29162
145 2 0.25035 0.0675929 0.302
308 1 0.33238 0.114953 0.25
66 1 0.74965 0.163683 0.29162
257 2 0.583217 0.0675929 0.302
334 1 0.665247 0.114953 0.25
363 1 0.501187 0.114953 0.25
245 2 0.916084 0.0675929 0.302
327 1 0.834054 0.114953 0.25
370 1 0.998114 0.114953 0.25
263 2 0.083916 0.355864 0.302
264 2 0.0825175 0.355864 0.302
336 1 0.000487343 0.403224 0.25
361 1 0.0825175 0.261144 0.25
406 1 0.165946 0.403224 0.25
102 1 0.25035 0.451955 0.29162
242 2 0.416783 0.355864 0.302
326 1 0.498813 0.403224 0.25
371 1 0.416783 0.261144 0.25
399 1 0.334753 0.403224 0.25
463 2 0.25035 0.259774 0.2814
64 1 0.583217 0.451955 0.29162
286 2 0.74965 0.355864 0.302
433 1 0.74965 0.261144 0.25
435 1 0.66762 0.403224 0.25
535 2 0.583217 0.259774 0.2814
62 1 0.916084 0.451955 0.29162
434 1 0.83168 0.403224 0.25
537 2 0.916084 0.259774 0.2814
100 1 0.083916 0.740226 0.29162
453 1 0.168319 0.691496 0.25
499 2 0.083916 0.548045 0.2814
98 1 0.416783 0.740226 0.29162
298 2 0.25035 0.644136 0.302
451 1 0.25035 0.549415 0.25
452 1 0.33238 0.691496 0.25
501 2 0.416783 0.548045 0.2814
26 1 0.74965 0.740226 0.29162
261 2 0.583217 0.644136 0.302
335 1 0.583217 0.549415 0.25
362 1 0.665247 0.691496 0.25
408 1 0.501187 0.691496 0.25
539 2 0.74965 0.548045 0.2814
239 2 0.917482 0.644136 0.302
240 2 0.916084 0.644136 0.302
325 1 0.916084 0.549415 0.25
372 1 0.834054 0.691496 0.25
398 1 0.999513 0.691496 0.25
258 2 0.083916 0.932407 0.302
407 1 0.083916 0.837687 0.25
246 2 0.416783 0.932407 0.302
397 1 0.416783 0.837687 0.25
503 2 0.25035 0.836317 0.2814
148 2 0.74965 0.932407 0.302
307 1 0.74965 0.837687 0.25
465 2 0.583217 0.836317 0.2814
146 2 0.751049 0.932407 0.302
467 2 0.917482 0.836317 0.2814
127 2 0.248951 0.0675929 0.364667
605 1 0.167133 0.211729 0.333333
606 1 0.165734 0.211729 0.333333
627 1 0.0825175 0.0675929 0.333333
125 2 0.25035 0.0675929 0.364667
601 1 0.416783 0.0675929 0.333333
630 1 0.333566 0.211729 0.333333
674 1 0.5 0.211729 0.333333
203 2 0.583217 0.0675929 0.364667
748 1 0.666433 0.211729 0.333333
782 1 0.74965 0.0675929 0.333333
219 2 0.916084 0.0675929 0.364667
676 1 0.999301 0.211729 0.333333
755 1 0.832867 0.211729 0.333333
197 2 0.083916 0.355864 0.364667
198 2 0.0825175 0.355864 0.364667
736 1 0.167133 0.5 0.333333
786 1 0.000699231 0.5 0.333333
13 1 0.25035 0.259774 0.375047
222 2 0.416783 0.355864 0.364667
659 1 0.25035 0.355864 0.333333
721 1 0.333566 0.5 0.333333
790 1 0.5 0.5 0.333333
85 1 0.583217 0.259774 0.375047
293 2 0.74965 0.355864 0.364667
746 1 0.666433 0.5 0.333333
757 1 0.583217 0.355864 0.333333
87 1 0.916084 0.259774 0.375047
744 1 0.916084 0.355864 0.333333
759 1 0.832867 0.5 0.333333
787 1 0.999301 0.5 0.333333
49 1 0.083916 0.548045 0.375047
719 1 0.083916 0.644136 0.333333
51 1 0.416783 0.548045 0.375047
281 2 0.25035 0.644136 0.364667
734 1 0.416783 0.644136 0.333333
89 1 0.74965 0.548045 0.375047
201 2 0.583217 0.644136 0.364667
672 1 0.74965 0.644136 0.333333
225 2 0.917482 0.644136 0.364667
226 2 0.916084 0.644136 0.364667
204 2 0.083916 0.932407 0.364667
663 1 0.000699231 0.788271 0.333333
732 1 0.167133 0.788271 0.333333
53 1 0.25035 0.836317 0.375047
220 2 0.416783 0.932407 0.364667
661 1 0.5 0.788271 0.333333
723 1 0.333566 0.788271 0.333333
783 1 0.25035 0.932407 0.333333
15 1 0.583217 0.836317 0.375047
128 2 0.74965 0.932407 0.364667
609 1 0.666433 0.788271 0.333333
628 1 0.583217 0.932407 0.333333
17 1 0.917482 0.836317 0.375047
126 2 0.751049 0.932407 0.364667
602 1 0.917482 0.932407 0.333333
623 1 0.834266 0.788271 0.333333
624 1 0.832867 0.788271 0.333333
473 2 0.0825175 0.163683 0.448067
480 2 0.0825175 0.163683 0.385267
310 1 0.25035 0.162313 0.416667
471 2 0.416783 0.163683 0.448067
478 2 0.416783 0.163683 0.385267
409 1 0.583217 0.162313 0.416667
509 2 0.74965 0.163683 0.448067
516 2 0.74965 0.163683 0.385267
421 1 0.916084 0.162313 0.416667
337 1 0.083916 0.450584 0.416667
387 1 0.165946 0.308504 0.416667
411 1 0.000487343 0.308504 0.416667
32 1 0.25035 0.259774 0.458287
349 1 0.416783 0.450584 0.416667
375 1 0.334753 0.308504 0.416667
423 1 0.498813 0.308504 0.416667
545 2 0.25035 0.451955 0.448067
552 2 0.25035 0.451955 0.385267
104 1 0.583217 0.259774 0.458287
454 1 0.74965 0.450584 0.416667
456 1 0.66762 0.308504 0.416667
507 2 0.583217 0.451955 0.448067
514 2 0.583217 0.451955 0.385267
106 1 0.916084 0.259774 0.458287
458 1 0.83168 0.308504 0.416667
505 2 0.916084 0.451955 0.448067
512 2 0.916084 0.451955 0.385267
68 1 0.083916 0.548045 0.458287
438 1 0.168319 0.596776 0.416667
543 2 0.083916 0.740226 0.448067
550 2 0.083916 0.740226 0.385267
70 1 0.416783 0.548045 0.458287
436 1 0.25035 0.738856 0.416667
440 1 0.33238 0.596776 0.416667
541 2 0.416783 0.740226 0.448067
548 2 0.416783 0.740226 0.385267
108 1 0.74965 0.548045 0.458287
339 1 0.501187 0.596776 0.416667
385 1 0.583217 0.738856 0.416667
413 1 0.665247 0.596776 0.416667
469 2 0.74965 0.740226 0.448067
476 2 0.74965 0.740226 0.385267
351 1 0.999513 0.596776 0.416667
373 1 0.917482 0.738856 0.416667
419 1 0.834054 0.596776 0.416667
341 1 0.165946 0.885047 0.416667
383 1 0.00188587 0.885047 0.416667
72 1 0.25035 0.836317 0.458287
347 1 0.334753 0.885047 0.416667
377 1 0.498813 0.885047 0.416667
34 1 0.583217 0.836317 0.458287
312 1 0.66762 0.885047 0.416667
36 1 0.917482 0.836317 0.458287
314 1 0.833079 0.885047 0.416667
135 2 0.248951 0.0675929 0.531333
155 2 0.248951 0.0675929 0.468667
611 1 0.0825175 0.0675929 0.5
633 1 0.167133 0.211729 0.5
634 1 0.165734 0.211729 0.5
133 2 0.25035 0.0675929 0.531333
153 2 0.25035 0.0675929 0.468667
619 1 0.333566 0.211729 0.5
637 1 0.416783 0.0675929 0.5
667 1 0.5 0.211729 0.5
229 2 0.583217 0.0675929 0.531333
255 2 0.583217 0.0675929 0.468667
729 1 0.666433 0.211729 0.5
792 1 0.74965 0.0675929 0.5
213 2 0.916084 0.0675929 0.531333
267 2 0.916084 0.0675929 0.468667
669 1 0.999301 0.211729 0.5
738 1 0.832867 0.211729 0.5
235 2 0.083916 0.355864 0.531333
236 2 0.0825175 0.355864 0.531333
249 2 0.083916 0.355864 0.468667
250 2 0.0825175 0.355864 0.468667
765 1 0.167133 0.5 0.5
796 1 0.000699231 0.5 0.5
211 2 0.416783 0.355864 0.531333
271 2 0.416783 0.355864 0.468667
678 1 0.25035 0.355864 0.5
752 1 0.333566 0.5 0.5
800 1 0.5 0.5 0.5
283 2 0.74965 0.355864 0.531333
300 2 0.74965 0.355864 0.468667
727 1 0.666433 0.5 0.5
740 1 0.583217 0.355864 0.5
725 1 0.916084 0.355864 0.5
742 1 0.832867 0.5 0.5
797 1 0.999301 0.5 0.5
750 1 0.083916 0.644136 0.5
288 2 0.25035 0.644136 0.468667
295 2 0.25035 0.644136 0.531333
763 1 0.416783 0.644136 0.5
232 2 0.583217 0.644136 0.531333
252 2 0.583217 0.644136 0.468667
665 1 0.74965 0.644136 0.5
207 2 0.917482 0.644136 0.531333
208 2 0.916084 0.644136 0.531333
273 2 0.917482 0.644136 0.468667
274 2 0.916084 0.644136 0.468667
230 2 0.083916 0.932407 0.531333
256 2 0.083916 0.932407 0.468667
682 1 0.000699231 0.788271 0.5
761 1 0.167133 0.788271 0.5
214 2 0.416783 0.932407 0.531333
268 2 0.416783 0.932407 0.468667
680 1 0.5 0.788271 0.5
754 1 0.333566 0.788271 0.5
793 1 0.25035 0.932407 0.5
136 2 0.74965 0.932407 0.531333
156 2 0.74965 0.932407 0.468667
612 1 0.583217 0.932407 0.5
640 1 0.666433 0.788271 0.5
134 2 0.751049 0.932407 0.531333
154 2 0.751049 0.932407 0.468667
615 1 0.834266 0.788271 0.5
616 1 0.832867 0.788271 0.5
638 1 0.917482 0.932407 0.5
23 1 0.0825175 0.163683 0.541713
315 1 0.166921 0.114953 0.583333
21 1 0.416783 0.163683 0.541713
313 1 0.33238 0.114953 0.583333
59 1 0.74965 0.163683 0.541713
346 1 0.665247 0.114953 0.583333
378 1 0.501187 0.114953 0.583333
342 1 0.834054 0.114953 0.583333
382 1 0.998114 0.114953 0.583333
350 1 0.000487343 0.403224 0.583333
374 1 0.0825175 0.261144 0.583333
418 1 0.165946 0.403224 0.583333
95 1 0.25035 0.451955 0.541713
340 1 0.498813 0.403224 0.583333
384 1 0.416783 0.261144 0.583333
414 1 0.334753 0.403224 0.583333
475 2 0.25035 0.259774 0.614733
482 2 0.25035 0.259774 0.551933
57 1 0.583217 0.451955 0.541713
437 1 0.74965 0.261144 0.583333
441 1 0.66762 0.403224 0.583333
547 2 0.583217 0.259774 0.614733
554 2 0.583217 0.259774 0.551933
55 1 0.916084 0.451955 0.541713
439 1 0.83168 0.403224 0.583333
549 2 0.916084 0.259774 0.614733
556 2 0.916084 0.259774 0.551933
93 1 0.083916 0.740226 0.541713
459 1 0.168319 0.691496 0.583333
511 2 0.083916 0.548045 0.614733
518 2 0.083916 0.548045 0.551933
91 1 0.416783 0.740226 0.541713
455 1 0.25035 0.549415 0.583333
457 1 0.33238 0.691496 0.583333
513 2 0.416783 0.548045 0.614733
520 2 0.416783 0.548045 0.551933
19 1 0.74965 0.740226 0.541713
348 1 0.583217 0.549415 0.583333
376 1 0.665247 0.691496 0.583333
422 1 0.501187 0.691496 0.583333
551 2 0.74965 0.548045 0.614733
558 2 0.74965 0.548045 0.551933
338 1 0.916084 0.549415 0.583333
386 1 0.834054 0.691496 0.583333
412 1 0.999513 0.691496 0.583333
420 1 0.083916 0.837687 0.583333
410 1 0.416783 0.837687 0.583333
515 2 0.25035 0.836317 0.614733
522 2 0.25035 0.836317 0.551933
311 1 0.74965 0.837687 0.583333
477 2 0.583217 0.836317 0.614733
484 2 0.583217 0.836317 0.551933
479 2 0.917482 0.836317 0.614733
486 2 0.917482 0.836317 0.551933
18 1 0.0825175 0.163683 0.624953
131 2 0.248951 0.0675929 0.635333
603 1 0.0825175 0.0675929 0.666667
621 1 0.167133 0.211729 0.666667
622 1 0.165734 0.211729 0.666667
16 1 0.416783 0.163683 0.624953
129 2 0.25035 0.0675929 0.635333
610 1 0.333566 0.211729 0.666667
625 1 0.416783 0.0675929 0.666667
662 1 0.5 0.211729 0.666667
54 1 0.74965 0.163683 0.624953
217 2 0.583217 0.0675929 0.635333
724 1 0.666433 0.211729 0.666667
784 1 0.74965 0.0675929 0.666667
205 2 0.916084 0.0675929 0.635333
664 1 0.999301 0.211729 0.666667
731 1 0.832867 0.211729 0.666667
223 2 0.083916 0.355864 0.635333
224 2 0.0825175 0.355864 0.635333
760 1 0.167133 0.5 0.666667
788 1 0.000699231 0.5 0.666667
90 1 0.25035 0.451955 0.624953
202 2 0.416783 0.355864 0.635333
671 1 0.25035 0.355864 0.666667
745 1 0.333566 0.5 0.666667
791 1 0.5 0.5 0.666667
52 1 0.583217 0.451955 0.624953
282 2 0.74965 0.355864 0.635333
722 1 0.666433 0.5 0.666667
733 1 0.583217 0.355864 0.666667
50 1 0.916084 0.451955 0.624953
720 1 0.916084 0.355864 0.666667
735 1 0.832867 0.5 0.666667
789 1 0.999301 0.5 0.666667
88 1 0.083916 0.740226 0.624953
743 1 0.083916 0.644136 0.666667
86 1 0.416783 0.740226 0.624953
294 2 0.25035 0.644136 0.635333
758 1 0.416783 0.644136 0.666667
14 1 0.74965 0.740226 0.624953
221 2 0.583217 0.644136 0.635333
660 1 0.74965 0.644136 0.666667
199 2 0.917482 0.644136 0.635333
200 2 0.916084 0.644136 0.635333
218 2 0.083916 0.932407 0.635333
675 1 0.000699231 0.788271 0.666667
756 1 0.167133 0.788271 0.666667
206 2 0.416783 0.932407 0.635333
673 1 0.5 0.788271 0.666667
747 1 0.333566 0.788271 0.666667
785 1 0.25035 0.932407 0.666667
132 2 0.74965 0.932407 0.635333
604 1 0.583217 0.932407 0.666667
629 1 0.666433 0.788271 0.666667
130 2 0.751049 0.932407 0.635333
607 1 0.834266 0.788271 0.666667
608 1 0.832867 0.788271 0.666667
626 1 0.917482 0.932407 0.666667
143 2 0.248951 0.0675929 0.698
468 2 0.0825175 0.163683 0.7186
141 2 0.25035 0.0675929 0.698
316 1 0.25035 0.162313 0.75
466 2 0.416783 0.163683 0.7186
243 2 0.583217 0.0675929 0.698
415 1 0.583217 0.162313 0.75
504 2 0.74965 0.163683 0.7186
259 2 0.916084 0.0675929 0.698
425 1 0.916084 0.162313 0.75
237 2 0.083916 0.355864 0.698
238 2 0.0825175 0.355864 0.698
343 1 0.083916 0.450584 0.75
390 1 0.165946 0.308504 0.75
416 1 0.000487343 0.308504 0.75
25 1 0.25035 0.259774 0.70838
262 2 0.416783 0.355864 0.698
353 1 0.416783 0.450584 0.75
380 1 0.334753 0.308504 0.75
426 1 0.498813 0.308504 0.75
540 2 0.25035 0.451955 0.7186
97 1 0.583217 0.259774 0.70838
297 2 0.74965 0.355864 0.698
460 1 0.74965 0.450584 0.75
461 1 0.66762 0.308504 0.75
502 2 0.583217 0.451955 0.7186
99 1 0.916084 0.259774 0.70838
462 1 0.83168 0.308504 0.75
500 2 0.916084 0.451955 0.7186
61 1 0.083916 0.548045 0.70838
443 1 0.168319 0.596776 0.75
538 2 0.083916 0.740226 0.7186
63 1 0.416783 0.548045 0.70838
285 2 0.25035 0.644136 0.698
442 1 0.25035 0.738856 0.75
444 1 0.33238 0.596776 0.75
536 2 0.416783 0.740226 0.7186
101 1 0.74965 0.548045 0.70838
241 2 0.583217 0.644136 0.698
344 1 0.501187 0.596776 0.75
389 1 0.583217 0.738856 0.75
417 1 0.665247 0.596776 0.75
464 2 0.74965 0.740226 0.7186
265 2 0.917482 0.644136 0.698
266 2 0.916084 0.644136 0.698
354 1 0.999513 0.596776 0.75
379 1 0.917482 0.738856 0.75
424 1 0.834054 0.596776 0.75
244 2 0.083916 0.932407 0.698
345 1 0.165946 0.885047 0.75
388 1 0.00188587 0.885047 0.75
65 1 0.25035 0.836317 0.70838
260 2 0.416783 0.932407 0.698
352 1 0.334753 0.885047 0.75
381 1 0.498813 0.885047 0.75
27 1 0.583217 0.836317 0.70838
144 2 0.74965 0.932407 0.698
317 1 0.66762 0.885047 0.75
29 1 0.917482 0.836317 0.70838
142 2 0.751049 0.932407 0.698
318 1 0.833079 0.885047 0.75
139 2 0.248951 0.0675929 0.802
485 2 0.0825175 0.163683 0.7814
617 1 0.167133 0.211729 0.833333
618 1 0.165734 0.211729 0.833333
635 1 0.0825175 0.0675929 0.833333
137 2 0.25035 0.0675929 0.802
483 2 0.416783 0.163683 0.7814
613 1 0.416783 0.0675929 0.833333
639 1 0.333566 0.211729 0.833333
679 1 0.5 0.211729 0.833333
215 2 0.583217 0.0675929 0.802
521 2 0.74965 0.163683 0.7814
753 1 0.666433 0.211729 0.833333
794 1 0.74965 0.0675929 0.833333
227 2 0.916084 0.0675929 0.802
681 1 0.999301 0.211729 0.833333
762 1 0.832867 0.211729 0.833333
209 2 0.083916 0.355864 0.802
210 2 0.0825175 0.355864 0.802
741 1 0.167133 0.5 0.833333
798 1 0.000699231 0.5 0.833333
20 1 0.25035 0.259774 0.79162
231 2 0.416783 0.355864 0.802
557 2 0.25035 0.451955 0.7814
666 1 0.25035 0.355864 0.833333
728 1 0.333566 0.5 0.833333
801 1 0.5 0.5 0.833333
92 1 0.583217 0.259774 0.79162
296 2 0.74965 0.355864 0.802
519 2 0.583217 0.451955 0.7814
751 1 0.666433 0.5 0.833333
764 1 0.583217 0.355864 0.833333
94 1 0.916084 0.259774 0.79162
517 2 0.916084 0.451955 0.7814
749 1 0.916084 0.355864 0.833333
766 1 0.832867 0.5 0.833333
799 1 0.999301 0.5 0.833333
56 1 0.083916 0.548045 0.79162
555 2 0.083916 0.740226 0.7814
726 1 0.083916 0.644136 0.833333
58 1 0.416783 0.548045 0.79162
284 2 0.25035 0.644136 0.802
553 2 0.416783 0.740226 0.7814
739 1 0.416783 0.644136 0.833333
96 1 0.74965 0.548045 0.79162
212 2 0.583217 0.644136 0.802
481 2 0.74965 0.740226 0.7814
677 1 0.74965 0.644136 0.833333
233 2 0.917482 0.644136 0.802
234 2 0.916084 0.644136 0.802
216 2 0.083916 0.932407 0.802
670 1 0.000699231 0.788271 0.833333
737 1 0.167133 0.788271 0.833333
60 1 0.25035 0.836317 0.79162
228 2 0.416783 0.932407 0.802
668 1 0.5 0.788271 0.833333
730 1 0.333566 0.788271 0.833333
795 1 0.25035 0.932407 0.833333
22 1 0.583217 0.836317 0.79162
140 2 0.74965 0.932407 0.802
620 1 0.666433 0.788271 0.833333
636 1 0.583217 0.932407 0.833333
24 1 0.917482 0.836317 0.79162
138 2 0.751049 0.932407 0.802
614 1 0.917482 0.932407 0.833333
631 1 0.834266 0.788271 0.833333
632 1 0.832867 0.788271 0.833333
35 1 0.0825175 0.163683 0.875047
151 2 0.248951 0.0675929 0.864667
306 1 0.166921 0.114953 0.916667
33 1 0.416783 0.163683 0.875047
149 2 0.25035 0.0675929 0.864667
304 1 0.33238 0.114953 0.916667
71 1 0.74965 0.163683 0.875047
269 2 0.583217 0.0675929 0.864667
328 1 0.665247 0.114953 0.916667
360 1 0.501187 0.114953 0.916667
253 2 0.916084 0.0675929 0.864667
324 1 0.834054 0.114953 0.916667
364 1 0.998114 0.114953 0.916667
275 2 0.083916 0.355864 0.864667
276 2 0.0825175 0.355864 0.864667
332 1 0.000487343 0.403224 0.916667
356 1 0.0825175 0.261144 0.916667
400 1 0.165946 0.403224 0.916667
107 1 0.25035 0.451955 0.875047
251 2 0.416783 0.355864 0.864667
322 1 0.498813 0.403224 0.916667
366 1 0.416783 0.261144 0.916667
396 1 0.334753 0.403224 0.916667
470 2 0.25035 0.259774 0.885267
69 1 0.583217 0.451955 0.875047
287 2 0.74965 0.355864 0.864667
428 1 0.74965 0.261144 0.916667
432 1 0.66762 0.403224 0.916667
542 2 0.583217 0.259774 0.885267
67 1 0.916084 0.451955 0.875047
430 1 0.83168 0.403224 0.916667
544 2 0.916084 0.259774 0.885267
105 1 0.083916 0.740226 0.875047
450 1 0.168319 0.691496 0.916667
506 2 0.083916 0.548045 0.885267
103 1 0.416783 0.740226 0.875047
299 2 0.25035 0.644136 0.864667
446 1 0.25035 0.549415 0.916667
448 1 0.33238 0.691496 0.916667
508 2 0.416783 0.548045 0.885267
31 1 0.74965 0.740226 0.875047
272 2 0.583217 0.644136 0.864667
330 1 0.583217 0.549415 0.916667
358 1 0.665247 0.691496 0.916667
404 1 0.501187 0.691496 0.916667
546 2 0.74965 0.548045 0.885267
247 2 0.917482 0.644136 0.864667
248 2 0.916084 0.644136 0.864667
320 1 0.916084 0.549415 0.916667
368 1 0.834054 0.691496 0.916667
394 1 0.999513 0.691496 0.916667
270 2 0.083916 0.932407 0.864667
402 1 0.083916 0.837687 0.916667
254 2 0.416783 0.932407 0.864667
392 1 0.416783 0.837687 0.916667
510 2 0.25035 0.836317 0.885267
152 2 0.74965 0.932407 0.864667
302 1 0.74965 0.837687 0.916667
472 2 0.583217 0.836317 0.885267
150 2 0.751049 0.932407 0.864667
474 2 0.917482 0.836317 0.885267
6 1 0.0825175 0.163683 0.958287
115 2 0.248951 0.0675929 0.968667
4 1 0.416783 0.163683 0.958287
113 2 0.25035 0.0675929 0.968667
42 1 0.74965 0.163683 0.958287
177 2 0.583217 0.0675929 0.968667
165 2 0.916084 0.0675929 0.968667
183 2 0.083916 0.355864 0.968667
184 2 0.0825175 0.355864 0.968667
78 1 0.25035 0.451955 0.958287
162 2 0.416783 0.355864 0.968667
487 2 0.25035 0.259774 0.948067
40 1 0.583217 0.451955 0.958287
278 2 0.74965 0.355864 0.968667
559 2 0.583217 0.259774 0.948067
38 1 0.916084 0.451955 0.958287
561 2 0.916084 0.259774 0.948067
76 1 0.083916 0.740226 0.958287
523 2 0.083916 0.548045 0.948067
74 1 0.416783 0.740226 0.958287
290 2 0.25035 0.644136 0.968667
525 2 0.416783 0.548045 0.948067
2 1 0.74965 0.740226 0.958287
181 2 0.583217 0.644136 0.968667
563 2 0.74965 0.548045 0.948067
159 2 0.917482 0.644136 0.968667
160 2 0.916084 0.644136 0.968667
178 2 0.083916 0.932407 0.968667
166 2 0.416783 0.932407 0.968667
527 2 0.25035 0.836317 0.948067
116 2 0.74965 0.932407 0.968667
489 2 0.583217 0.836317 0.948067
114 2 0.751049 0.932407 0.968667
491 2 0.917482 0.836317 0.948067
