ITEM: TIMESTEP
0
ITEM: NUMBER OF ATOMS
4786
ITEM: BOX BOUNDS pp pp pp
2.2848750000000000e+00 1.7084875000000000e+01
-1.4968146000000001e+01 -1.6814599999999999e-01
-3.2521610000000003e+01 4.6878391999999998e+01
ITEM: ATOMS id type xs ys zs
33 1 0.117164 0.20406 0.409592
59 1 0.203585 0.226305 0.439728
147 1 0.0933393 0.0336063 0.439728
162 1 0.148462 0.129956 0.439728
254 1 0.237145 0.0789888 0.424707
309 1 0.0887699 0.235052 0.439728
318 1 0.246896 0.020108 0.409592
334 1 0.140716 0.116457 0.409592
360 1 0.0855936 0.020108 0.409592
374 1 0.19584 0.212807 0.409592
419 1 0.168927 0.127846 0.424613
422 1 0.22405 0.224195 0.424613
455 1 0.00762534 0.127846 0.424613
458 1 0.0627482 0.224195 0.424613
530 1 0.0322021 0.20617 0.424707
668 1 0.208531 0.0623281 0.424613
704 1 0.0472291 0.0623281 0.424613
717 1 0.102352 0.158678 0.424613
742 1 0.11236 0.0989639 0.409592
782 1 0.167483 0.195313 0.409592
824 1 0.00618054 0.195313 0.409592
871 1 0.0288424 0.0336063 0.439728
874 1 0.0839653 0.129956 0.439728
934 1 0.139088 0.226305 0.439728
966 1 0.191035 0.107711 0.409592
996 1 0.135912 0.0113612 0.409592
1007 1 0.172648 0.0789887 0.424707
1043 1 0.0113461 0.0789887 0.424707
1052 1 0.227771 0.175338 0.424707
1088 1 0.066469 0.175338 0.424707
1121 1 0.131343 0.212807 0.409592
1207 1 0.0762199 0.116457 0.409592
1210 1 0.107518 0.042353 0.439728
1385 1 0.212252 0.0134709 0.424707
1421 1 0.0509499 0.0134709 0.424707
1476 1 0.037855 0.158678 0.424613
1548 1 0.199157 0.158678 0.424613
1576 1 0.240463 0.0248595 0.439728
1618 1 0.0791607 0.0248595 0.439728
1621 1 0.134284 0.121209 0.439728
1674 1 0.189407 0.217558 0.439728
1699 1 0.126538 0.107711 0.409592
1729 1 0.0714153 0.0113612 0.409592
1746 1 0.181661 0.20406 0.409592
1795 1 0.0203591 0.20406 0.409592
1847 1 0.00197243 0.175338 0.424707
1957 1 0.0430207 0.042353 0.439728
1960 1 0.0981437 0.138702 0.439728
2013 1 0.153267 0.235052 0.439728
2064 1 0.15009 0.020108 0.409592
2079 1 0.178301 0.0314966 0.424613
2114 1 0.233424 0.127846 0.424613
2115 1 0.0169991 0.0314966 0.424613
2150 1 0.072122 0.127846 0.424613
2186 1 0.202878 0.10982 0.424707
2222 1 0.0415761 0.10982 0.424707
2235 1 0.0966989 0.20617 0.424707
2259 1 0.147755 0.0134709 0.424707
2421 1 0.12491 0.217558 0.439728
2446 1 0.176856 0.0989639 0.409592
2486 1 0.231979 0.195313 0.409592
2494 1 0.0697868 0.121209 0.439728
2519 2 0.0208724 0.0273649 0.409592
2523 2 0.0759953 0.123714 0.409592
2575 2 0.131118 0.220064 0.409592
2673 2 0.125134 0.210301 0.439728
2698 2 0.177081 0.091707 0.409592
2738 2 0.232204 0.188056 0.409592
2740 2 0.0157789 0.091707 0.409592
2788 2 0.00833047 0.0670816 0.439728
2799 2 0.224755 0.163431 0.439728
2841 2 0.0634534 0.163431 0.439728
2866 2 0.1154 0.0448366 0.409592
2953 2 0.113851 0.000130946 0.439728
2956 2 0.168974 0.0964803 0.439728
2998 2 0.00767209 0.0964803 0.439728
3009 2 0.224097 0.19283 0.439728
3040 2 0.116938 0.0769991 0.439728
3093 2 0.17206 0.173349 0.439728
3118 2 0.224007 0.0547541 0.409592
3135 2 0.0107582 0.173349 0.439728
3166 2 0.221669 0.0865628 0.439728
3208 2 0.0603671 0.0865628 0.439728
3261 2 0.11549 0.182912 0.439728
3289 2 0.204098 0.0496099 0.439728
3331 2 0.0427964 0.0496099 0.439728
3334 2 0.0979192 0.145959 0.439728
3387 2 0.153042 0.242309 0.439728
3410 2 0.167707 0.188056 0.409592
3452 2 0.00640514 0.188056 0.409592
3496 2 0.112584 0.091707 0.409592
3499 2 0.143882 0.0176026 0.439728
3527 2 0.212205 0.0448366 0.409592
3569 2 0.0509034 0.0448366 0.409592
3573 2 0.106026 0.141186 0.409592
3625 2 0.161149 0.237535 0.409592
3669 2 0.104477 0.0964803 0.439728
3684 2 0.1596 0.19283 0.439728
3737 2 0.211547 0.0742353 0.409592
3821 2 0.15951 0.0547541 0.409592
3825 2 0.214633 0.151104 0.409592
3867 2 0.0533309 0.151104 0.409592
3936 2 0.0509932 0.182912 0.439728
3989 2 0.10294 0.0643178 0.409592
3993 2 0.158062 0.160667 0.409592
4059 2 0.0885453 0.242309 0.439728
4068 2 0.246671 0.0273649 0.409592
4084 2 0.140492 0.123714 0.409592
4110 2 0.0853691 0.0273649 0.409592
4124 2 0.195615 0.220064 0.409592
4132 2 0.0334225 0.145959 0.439728
4174 2 0.0793851 0.0176026 0.439728
4215 2 0.134508 0.113952 0.439728
4230 2 0.189631 0.210301 0.439728
4272 2 0.0283287 0.210301 0.439728
4292 2 0.0966523 0.237535 0.409592
4339 2 0.234129 0.0670816 0.439728
4378 2 0.0415295 0.141186 0.409592
4381 2 0.0728272 0.0670816 0.439728
4420 2 0.202173 0.170585 0.409592
4446 2 0.14705 0.0742353 0.409592
4462 2 0.0408711 0.170585 0.409592
4544 2 0.205259 0.247453 0.409592
4586 2 0.0439574 0.247453 0.409592
4630 2 0.150136 0.151104 0.409592
4633 2 0.181434 0.0769992 0.439728
4672 2 0.0935659 0.160667 0.409592
4698 2 0.038443 0.0643177 0.409592
5 1 0.361711 0.0113612 0.409592
37 1 0.415943 0.0336063 0.439728
60 1 0.471066 0.129956 0.439728
98 1 0.254641 0.0336063 0.439728
113 1 0.309764 0.129956 0.439728
161 1 0.364887 0.226305 0.439728
218 1 0.398447 0.0789888 0.424707
231 1 0.45357 0.175338 0.424707
267 1 0.292268 0.175338 0.424707
292 1 0.302019 0.116457 0.409592
332 1 0.357141 0.212807 0.409592
379 1 0.494618 0.042353 0.439728
590 1 0.438051 0.0134709 0.424707
632 1 0.369833 0.0623281 0.424613
645 1 0.424956 0.158678 0.424613
681 1 0.263654 0.158678 0.424613
740 1 0.328785 0.195313 0.409592
787 1 0.466261 0.0248595 0.439728
829 1 0.304959 0.0248595 0.439728
832 1 0.360082 0.121209 0.439728
885 1 0.30039 0.226305 0.439728
898 1 0.458516 0.0113612 0.409592
917 1 0.352337 0.107711 0.409592
947 1 0.297214 0.0113612 0.409592
964 1 0.407459 0.20406 0.409592
1016 1 0.389073 0.175338 0.424707
1126 1 0.430122 0.042353 0.439728
1129 1 0.485244 0.138702 0.439728
1168 1 0.268819 0.042353 0.439728
1171 1 0.323942 0.138702 0.439728
1224 1 0.379065 0.235052 0.439728
1284 1 0.4041 0.0314966 0.424613
1319 1 0.459223 0.127846 0.424613
1349 1 0.373554 0.0134709 0.424707
1394 1 0.428677 0.10982 0.424707
1397 1 0.4838 0.20617 0.424707
1430 1 0.267374 0.10982 0.424707
1433 1 0.322498 0.20617 0.424707
1579 1 0.295586 0.121209 0.439728
1632 1 0.350708 0.217558 0.439728
1657 1 0.402655 0.0989639 0.409592
1697 1 0.342963 0.20406 0.409592
1751 1 0.48044 0.0336063 0.439728
1797 1 0.28784 0.107711 0.409592
1800 1 0.319138 0.0336063 0.439728
1971 1 0.314568 0.235052 0.439728
1980 1 0.472694 0.020108 0.409592
1996 1 0.366515 0.116457 0.409592
2022 1 0.311392 0.020108 0.409592
2036 1 0.421638 0.212807 0.409592
2044 1 0.259446 0.138702 0.439728
2078 1 0.394726 0.127846 0.424613
2091 1 0.449849 0.224195 0.424613
2127 1 0.288547 0.224195 0.424613
2151 1 0.339603 0.0314966 0.424613
2199 1 0.258001 0.20617 0.424707
2271 1 0.419303 0.20617 0.424707
2324 1 0.43433 0.0623281 0.424613
2369 1 0.489453 0.158678 0.424613
2404 1 0.338158 0.0989639 0.409592
2444 1 0.393281 0.195313 0.409592
2488 1 0.49946 0.0989639 0.409592
2533 2 0.29242 0.220064 0.409592
2577 2 0.429897 0.0496099 0.439728
2592 2 0.48502 0.145959 0.439728
2619 2 0.268595 0.0496099 0.439728
2634 2 0.323718 0.145959 0.439728
2656 2 0.338383 0.091707 0.409592
2696 2 0.393506 0.188056 0.409592
2782 2 0.438004 0.0448366 0.409592
2822 2 0.493127 0.141186 0.409592
2824 2 0.276702 0.0448366 0.409592
2864 2 0.331825 0.141186 0.409592
2880 2 0.386948 0.237535 0.409592
2911 2 0.275153 0.000130946 0.439728
2914 2 0.330276 0.0964803 0.439728
2967 2 0.385399 0.19283 0.439728
2992 2 0.437345 0.0742353 0.409592
3051 2 0.333362 0.173349 0.439728
3076 2 0.385309 0.0547541 0.409592
3116 2 0.440432 0.151104 0.409592
3132 2 0.495554 0.247453 0.409592
3177 2 0.438094 0.182912 0.439728
3202 2 0.49004 0.0643178 0.409592
3219 2 0.276792 0.182912 0.439728
3244 2 0.328739 0.0643178 0.409592
3292 2 0.259221 0.145959 0.439728
3303 2 0.475646 0.242309 0.439728
3345 2 0.314344 0.242309 0.439728
3354 2 0.47247 0.0273649 0.409592
3370 2 0.366291 0.123714 0.409592
3396 2 0.311168 0.0273649 0.409592
3415 2 0.466486 0.0176026 0.439728
3457 2 0.305184 0.0176026 0.439728
3460 2 0.360307 0.113952 0.439728
3513 2 0.41543 0.210301 0.439728
3531 2 0.267328 0.141186 0.409592
3541 2 0.483753 0.237535 0.409592
3583 2 0.322451 0.237535 0.409592
3627 2 0.459928 0.0670816 0.439728
3695 2 0.372849 0.0742353 0.409592
3699 2 0.427971 0.170585 0.409592
3741 2 0.266669 0.170585 0.409592
3779 2 0.320812 0.0547541 0.409592
3783 2 0.375935 0.151104 0.409592
3835 2 0.431058 0.247453 0.409592
3877 2 0.269756 0.247453 0.409592
3905 2 0.425544 0.0643178 0.409592
3909 2 0.480667 0.160667 0.409592
3947 2 0.264242 0.0643178 0.409592
3951 2 0.319365 0.160667 0.409592
4042 2 0.301794 0.123714 0.409592
4082 2 0.356917 0.220064 0.409592
4126 2 0.463096 0.123714 0.409592
4129 2 0.494394 0.0496099 0.439728
4173 2 0.29581 0.113952 0.439728
4188 2 0.350933 0.210301 0.439728
4241 2 0.40288 0.091707 0.409592
4245 2 0.458002 0.188056 0.409592
4297 2 0.395431 0.0670816 0.439728
4300 2 0.450554 0.163431 0.439728
4342 2 0.289252 0.163431 0.439728
4454 2 0.33965 0.000130946 0.439728
4504 2 0.363475 0.170585 0.409592
4507 2 0.394773 0.0964803 0.439728
4591 2 0.342736 0.0769992 0.439728
4594 2 0.397859 0.173349 0.439728
4717 2 0.447468 0.0865628 0.439728
4756 2 0.254868 0.160667 0.409592
4759 2 0.286165 0.0865628 0.439728
35 1 0.633258 0.20406 0.409592
58 1 0.687491 0.226305 0.439728
75 1 0.684315 0.0113612 0.409592
82 1 0.739437 0.107711 0.409592
112 1 0.526189 0.226305 0.439728
124 1 0.523013 0.0113612 0.409592
131 1 0.578136 0.107711 0.409592
182 1 0.559749 0.0789888 0.424707
195 1 0.614872 0.175338 0.424707
290 1 0.518443 0.212807 0.409592
337 1 0.65592 0.042353 0.439728
340 1 0.711043 0.138702 0.439728
382 1 0.549741 0.138702 0.439728
482 1 0.629899 0.0314966 0.424613
554 1 0.599352 0.0134709 0.424707
599 1 0.654475 0.10982 0.424707
602 1 0.709598 0.20617 0.424707
745 1 0.627563 0.0248595 0.439728
748 1 0.682686 0.121209 0.439728
790 1 0.521384 0.121209 0.439728
801 1 0.737809 0.217558 0.439728
843 1 0.576507 0.217558 0.439728
866 1 0.730064 0.20406 0.409592
868 1 0.513639 0.107711 0.409592
915 1 0.568762 0.20406 0.409592
969 1 0.706238 0.0336063 0.439728
1140 1 0.701669 0.235052 0.439728
1182 1 0.540367 0.235052 0.439728
1191 1 0.698493 0.020108 0.409592
1213 1 0.646546 0.138702 0.439728
1233 1 0.537191 0.020108 0.409592
1248 1 0.565402 0.0314966 0.424613
1283 1 0.620525 0.127846 0.424613
1296 1 0.675648 0.224195 0.424613
1320 1 0.726704 0.0314966 0.424613
1358 1 0.589979 0.10982 0.424707
1361 1 0.645102 0.20617 0.424707
1535 1 0.660128 0.0623282 0.424613
1573 1 0.725259 0.0989639 0.409592
1590 1 0.51201 0.217558 0.439728
1615 1 0.563957 0.0989639 0.409592
1655 1 0.61908 0.195313 0.409592
1702 1 0.641742 0.0336063 0.439728
1705 1 0.696865 0.129956 0.439728
1754 1 0.535563 0.129956 0.439728
1814 1 0.590685 0.226305 0.439728
1827 1 0.748811 0.0113612 0.409592
1874 1 0.624246 0.0789887 0.424707
1919 1 0.679368 0.175338 0.424707
1952 1 0.744242 0.212807 0.409592
1954 1 0.527817 0.116457 0.409592
1994 1 0.58294 0.212807 0.409592
2038 1 0.689119 0.116457 0.409592
2041 1 0.720417 0.042353 0.439728
2163 1 0.611151 0.224195 0.424613
2288 1 0.595632 0.0623281 0.424613
2333 1 0.650754 0.158678 0.424613
2402 1 0.554583 0.195313 0.409592
2449 1 0.69206 0.0248595 0.439728
2452 1 0.747183 0.121209 0.439728
2491 1 0.530758 0.0248595 0.439728
2535 2 0.591199 0.0496099 0.439728
2550 2 0.646322 0.145959 0.439728
2591 2 0.701445 0.242309 0.439728
2603 2 0.698269 0.0273649 0.409592
2633 2 0.540143 0.242309 0.439728
2654 2 0.554808 0.188056 0.409592
2701 2 0.692285 0.0176026 0.439728
2704 2 0.747408 0.113952 0.439728
2743 2 0.530983 0.0176026 0.439728
2746 2 0.586105 0.113952 0.439728
2780 2 0.654429 0.141186 0.409592
2796 2 0.709552 0.237535 0.409592
2838 2 0.54825 0.237535 0.409592
2872 2 0.685727 0.0670816 0.439728
2925 2 0.546701 0.19283 0.439728
2950 2 0.598647 0.0742353 0.409592
2990 2 0.65377 0.170585 0.409592
3034 2 0.546611 0.0547541 0.409592
3074 2 0.601734 0.151104 0.409592
3090 2 0.656857 0.247453 0.409592
3160 2 0.651342 0.0643178 0.409592
3200 2 0.706465 0.160667 0.409592
3242 2 0.545163 0.160667 0.409592
3286 2 0.688895 0.123714 0.409592
3312 2 0.633772 0.0273649 0.409592
3326 2 0.744018 0.220064 0.409592
3328 2 0.527592 0.123714 0.409592
3368 2 0.582715 0.220064 0.409592
3418 2 0.521609 0.113952 0.439728
3429 2 0.738034 0.210301 0.439728
3471 2 0.576732 0.210301 0.439728
3502 2 0.682911 0.113952 0.439728
3585 2 0.62123 0.0670816 0.439728
3600 2 0.676353 0.163431 0.439728
3642 2 0.515051 0.163431 0.439728
3653 2 0.534151 0.0742353 0.409592
3657 2 0.589274 0.170585 0.409592
3712 2 0.72675 0.000130946 0.439728
3754 2 0.565449 0.000130946 0.439728
3793 2 0.59236 0.247453 0.409592
3837 2 0.729837 0.0769992 0.439728
3879 2 0.568535 0.0769992 0.439728
3894 2 0.623658 0.173349 0.439728
4005 2 0.673266 0.0865628 0.439728
4020 2 0.728389 0.182912 0.439728
4040 2 0.518219 0.220064 0.409592
4087 2 0.655696 0.0496099 0.439728
4090 2 0.710819 0.145959 0.439728
4157 2 0.725483 0.091707 0.409592
4199 2 0.564181 0.091707 0.409592
4203 2 0.619304 0.188056 0.409592
4336 2 0.718925 0.141186 0.409592
4362 2 0.663803 0.0448366 0.409592
4384 2 0.611856 0.163431 0.439728
4404 2 0.502501 0.0448366 0.409592
4412 2 0.500952 0.000130946 0.439728
4423 2 0.717377 0.0964803 0.439728
4465 2 0.556075 0.0964803 0.439728
4468 2 0.611198 0.19283 0.439728
4496 2 0.662254 0.000130946 0.439728
4549 2 0.504038 0.0769992 0.439728
4552 2 0.559161 0.173349 0.439728
4636 2 0.720463 0.173349 0.439728
4656 2 0.611108 0.0547541 0.409592
4675 2 0.60877 0.0865628 0.439728
4678 2 0.663892 0.182912 0.439728
4720 2 0.502591 0.182912 0.439728
4782 2 0.715839 0.0643177 0.409592
1 1 0.845617 0.0113612 0.409592
13 1 0.900739 0.107711 0.409592
38 1 0.932037 0.0336063 0.439728
96 1 0.955862 0.20406 0.409592
145 1 0.79456 0.20406 0.409592
295 1 0.817222 0.042353 0.439728
298 1 0.872345 0.138702 0.439728
351 1 0.927468 0.235052 0.439728
376 1 0.979414 0.116457 0.409592
393 1 0.766166 0.235052 0.439728
402 1 0.924292 0.020108 0.409592
410 1 0.952502 0.0314966 0.424613
446 1 0.791201 0.0314966 0.424613
491 1 0.846323 0.127846 0.424613
494 1 0.901446 0.224195 0.424613
518 1 0.760654 0.0134709 0.424707
527 1 0.977079 0.10982 0.424707
563 1 0.815777 0.10982 0.424707
566 1 0.8709 0.20617 0.424707
759 1 0.899111 0.217558 0.439728
784 1 0.951058 0.0989639 0.409592
826 1 0.789755 0.0989639 0.409592
920 1 0.867541 0.0336063 0.439728
923 1 0.922663 0.129956 0.439728
972 1 0.761361 0.129956 0.439728
983 1 0.977786 0.226305 0.439728
1079 1 0.850044 0.0789887 0.424707
1123 1 0.914918 0.116457 0.409592
1149 1 0.859795 0.020108 0.409592
1163 1 0.970041 0.212807 0.409592
1165 1 0.753616 0.116457 0.409592
1205 1 0.808739 0.212807 0.409592
1247 1 0.781827 0.127846 0.424613
1260 1 0.83695 0.224195 0.424613
1332 1 0.998252 0.224195 0.424613
1463 1 0.982732 0.0623282 0.424613
1499 1 0.82143 0.0623282 0.424613
1512 1 0.876553 0.158678 0.424613
1571 1 0.941684 0.195313 0.409592
1613 1 0.780382 0.195313 0.409592
1660 1 0.917859 0.0248595 0.439728
1663 1 0.972982 0.121209 0.439728
1716 1 0.91329 0.226305 0.439728
1748 1 0.965236 0.107711 0.409592
1765 1 0.751988 0.226305 0.439728
1778 1 0.910113 0.0113612 0.409592
1803 1 0.858167 0.129956 0.439728
1838 1 0.785548 0.0789887 0.424707
1883 1 0.84067 0.175338 0.424707
1910 1 0.94685 0.0789887 0.424707
1999 1 0.881719 0.042353 0.439728
2002 1 0.936842 0.138702 0.439728
2055 1 0.991964 0.235052 0.439728
2187 1 0.986453 0.0134709 0.424707
2223 1 0.825151 0.0134709 0.424707
2258 1 0.880274 0.10982 0.424707
2297 1 0.812057 0.158678 0.424613
2360 1 0.756934 0.0623281 0.424613
2407 1 0.853362 0.0248595 0.439728
2410 1 0.908485 0.121209 0.439728
2463 1 0.963608 0.217558 0.439728
2505 1 0.802306 0.217558 0.439728
2549 2 0.862747 0.242309 0.439728
2561 2 0.859571 0.0273649 0.409592
2565 2 0.914693 0.123714 0.409592
2607 2 0.753391 0.123714 0.409592
2617 2 0.969816 0.220064 0.409592
2659 2 0.853587 0.0176026 0.439728
2662 2 0.908709 0.113952 0.439728
2715 2 0.963832 0.210301 0.439728
2757 2 0.80253 0.210301 0.439728
2830 2 0.847029 0.0670816 0.439728
2883 2 0.902151 0.163431 0.439728
2906 2 0.976374 0.170585 0.409592
2908 2 0.759949 0.0742353 0.409592
2948 2 0.815072 0.170585 0.409592
2995 2 0.952549 0.000130946 0.439728
3032 2 0.763036 0.151104 0.409592
3048 2 0.818159 0.247453 0.409592
3082 2 0.955635 0.0769991 0.439728
3124 2 0.794334 0.0769991 0.439728
3158 2 0.867767 0.160667 0.409592
3250 2 0.899065 0.0865628 0.439728
3284 2 0.905319 0.220064 0.409592
3373 2 0.881494 0.0496099 0.439728
3376 2 0.936617 0.145959 0.439728
3412 2 0.951282 0.091707 0.409592
3454 2 0.78998 0.091707 0.409592
3494 2 0.845103 0.188056 0.409592
3543 2 0.782532 0.0670816 0.439728
3558 2 0.837655 0.163431 0.439728
3611 2 0.889601 0.0448366 0.409592
3615 2 0.944724 0.141186 0.409592
3670 2 0.888052 0.000130946 0.439728
3711 2 0.943175 0.0964803 0.439728
3726 2 0.998298 0.19283 0.439728
3753 2 0.781873 0.0964803 0.439728
3768 2 0.836996 0.19283 0.439728
3795 2 0.891139 0.0769992 0.439728
3810 2 0.946262 0.173349 0.439728
3852 2 0.78496 0.173349 0.439728
3863 2 0.998208 0.0547541 0.409592
3921 2 0.99587 0.0865628 0.439728
3963 2 0.834568 0.0865628 0.439728
3978 2 0.889691 0.182912 0.439728
4045 2 0.816998 0.0496099 0.439728
4048 2 0.87212 0.145959 0.439728
4101 2 0.927243 0.242309 0.439728
4143 2 0.765941 0.242309 0.439728
4152 2 0.924067 0.0273649 0.409592
4161 2 0.780606 0.188056 0.409592
4216 2 0.918083 0.0176026 0.439728
4257 2 0.973206 0.113952 0.439728
4258 2 0.756781 0.0176026 0.439728
4294 2 0.880227 0.141186 0.409592
4320 2 0.825105 0.0448366 0.409592
4334 2 0.93535 0.237535 0.409592
4376 2 0.774048 0.237535 0.409592
4426 2 0.7725 0.19283 0.439728
4488 2 0.985748 0.0742353 0.409592
4510 2 0.933802 0.19283 0.439728
4530 2 0.824446 0.0742353 0.409592
4546 2 0.988834 0.151104 0.409592
4572 2 0.933712 0.0547541 0.409592
4588 2 0.827533 0.151104 0.409592
4614 2 0.77241 0.0547541 0.409592
4628 2 0.882655 0.247453 0.409592
4714 2 0.932264 0.160667 0.409592
4740 2 0.877141 0.0643177 0.409592
4762 2 0.825195 0.182912 0.439728
40 1 0.172287 0.300409 0.409592
100 1 0.0109851 0.300409 0.409592
110 1 0.22741 0.396759 0.409592
159 1 0.0661079 0.396759 0.409592
163 1 0.121231 0.493108 0.409592
503 1 0.117871 0.320545 0.424613
506 1 0.172994 0.416894 0.424613
539 1 0.248627 0.302519 0.424707
575 1 0.0873249 0.302519 0.424707
578 1 0.142448 0.398868 0.424707
798 1 0.222605 0.291663 0.409592
840 1 0.0613032 0.291663 0.409592
880 1 0.00161135 0.396759 0.409592
902 1 0.0567342 0.493108 0.409592
939 1 0.194211 0.322654 0.439728
988 1 0.0329089 0.322654 0.439728
1091 1 0.121592 0.271688 0.424707
1137 1 0.186466 0.309156 0.409592
1177 1 0.241588 0.405506 0.409592
1179 1 0.0251636 0.309156 0.409592
1219 1 0.0802864 0.405506 0.409592
1259 1 0.0533746 0.320545 0.424613
1272 1 0.108498 0.416894 0.424613
1511 1 0.0929778 0.255027 0.424613
1524 1 0.148101 0.351376 0.424613
1559 1 0.203224 0.447726 0.424613
1585 1 0.213232 0.388012 0.409592
1627 1 0.0519297 0.388012 0.409592
1643 1 0.107052 0.484361 0.409592
1677 1 0.244529 0.313908 0.439728
1762 1 0.236784 0.300409 0.409592
1819 1 0.129714 0.322654 0.439728
1850 1 0.0570953 0.271688 0.424707
1895 1 0.112218 0.368037 0.424707
1922 1 0.218397 0.271688 0.424707
1966 1 0.0157896 0.405506 0.409592
2270 1 0.151822 0.302519 0.424707
2309 1 0.0836043 0.351376 0.424613
2312 1 0.138727 0.447726 0.424613
2372 1 0.0284814 0.255027 0.424613
2424 1 0.180032 0.313908 0.439728
2466 1 0.0187304 0.313908 0.439728
2516 1 0.0425557 0.484361 0.409592
2579 2 0.186241 0.316413 0.409592
2621 2 0.0249393 0.316413 0.409592
2631 2 0.241364 0.412762 0.409592
2676 2 0.180257 0.306651 0.439728
2718 2 0.0189552 0.306651 0.439728
2844 2 0.118576 0.25978 0.439728
2920 2 0.247922 0.363283 0.409592
2922 2 0.0314971 0.266934 0.409592
2962 2 0.0866199 0.363283 0.409592
2978 2 0.141743 0.459633 0.409592
3046 2 0.0345834 0.343802 0.409592
3062 2 0.0897063 0.440152 0.409592
3096 2 0.227183 0.269698 0.439728
3138 2 0.0658813 0.269698 0.439728
3172 2 0.139315 0.353366 0.409592
3188 2 0.194438 0.449715 0.409592
3230 2 0.0331358 0.449715 0.409592
3264 2 0.170613 0.279262 0.439728
3298 2 0.176867 0.412762 0.409592
3340 2 0.0155653 0.412762 0.409592
3426 2 0.22283 0.284406 0.409592
3468 2 0.061528 0.284406 0.409592
3508 2 0.116651 0.380755 0.409592
3557 2 0.0540796 0.25978 0.439728
3629 2 0.216272 0.333885 0.409592
3681 2 0.0772462 0.459633 0.409592
3725 2 0.214723 0.289179 0.439728
3767 2 0.0534209 0.289179 0.439728
3809 2 0.162687 0.269698 0.439728
3851 2 0.00138459 0.269698 0.439728
3977 2 0.106116 0.279262 0.439728
4175 2 0.052154 0.380755 0.409592
4227 2 0.107277 0.477105 0.409592
4271 2 0.244754 0.306651 0.439728
4308 2 0.151775 0.333885 0.409592
4348 2 0.206898 0.430234 0.409592
4390 2 0.0455959 0.430234 0.409592
4502 2 0.0959937 0.266934 0.409592
4602 2 0.0990803 0.343802 0.409592
4642 2 0.154203 0.440152 0.409592
4712 2 0.148689 0.257017 0.409592
4728 2 0.203812 0.353366 0.409592
54 1 0.388712 0.396759 0.409592
61 1 0.443835 0.493108 0.409592
114 1 0.282533 0.493108 0.409592
130 1 0.42001 0.322654 0.439728
348 1 0.412264 0.309156 0.409592
388 1 0.467387 0.405506 0.409592
390 1 0.250962 0.309156 0.409592
431 1 0.440475 0.320545 0.424613
434 1 0.495598 0.416894 0.424613
467 1 0.279173 0.320545 0.424613
470 1 0.334296 0.416894 0.424613
542 1 0.30375 0.398868 0.424707
680 1 0.480079 0.255027 0.424613
716 1 0.318776 0.255027 0.424613
729 1 0.3739 0.351376 0.424613
756 1 0.383907 0.291663 0.409592
796 1 0.43903 0.388012 0.409592
812 1 0.494153 0.484361 0.409592
838 1 0.277728 0.388012 0.409592
854 1 0.332851 0.484361 0.409592
890 1 0.355513 0.322654 0.439728
980 1 0.462583 0.300409 0.409592
1019 1 0.444196 0.271688 0.424707
1055 1 0.282894 0.271688 0.424707
1064 1 0.499319 0.368037 0.424707
1100 1 0.338017 0.368037 0.424707
1135 1 0.40289 0.405506 0.409592
1221 1 0.347768 0.309156 0.409592
1344 1 0.269799 0.416894 0.424613
1475 1 0.25428 0.255027 0.424613
1488 1 0.309403 0.351376 0.424613
1523 1 0.364526 0.447726 0.424613
1560 1 0.470705 0.351376 0.424613
1601 1 0.268355 0.484361 0.409592
1635 1 0.405831 0.313908 0.439728
1713 1 0.398086 0.300409 0.409592
1760 1 0.453209 0.396759 0.409592
1809 1 0.291907 0.396759 0.409592
1859 1 0.27352 0.368037 0.424707
2162 1 0.34367 0.320545 0.424613
2198 1 0.474426 0.302519 0.424707
2234 1 0.313124 0.302519 0.424707
2247 1 0.368246 0.398869 0.424707
2384 1 0.300029 0.447726 0.424613
2460 1 0.448404 0.291663 0.409592
2508 1 0.341335 0.313908 0.439728
2537 2 0.347543 0.316413 0.409592
2589 2 0.402666 0.412762 0.409592
2712 2 0.448629 0.284406 0.409592
2754 2 0.287327 0.284406 0.409592
2802 2 0.279878 0.25978 0.439728
2936 2 0.303045 0.459633 0.409592
2970 2 0.440522 0.289179 0.439728
3012 2 0.27922 0.289179 0.439728
3054 2 0.388485 0.269698 0.439728
3180 2 0.493217 0.279262 0.439728
3222 2 0.331915 0.279262 0.439728
3424 2 0.439255 0.380755 0.409592
3440 2 0.494378 0.477105 0.409592
3466 2 0.277953 0.380755 0.409592
3482 2 0.333075 0.477105 0.409592
3510 2 0.384132 0.284406 0.409592
3587 2 0.377574 0.333885 0.409592
3639 2 0.432697 0.430234 0.409592
3683 2 0.376025 0.289179 0.439728
3751 2 0.483095 0.266934 0.409592
3839 2 0.486181 0.343802 0.409592
3881 2 0.324879 0.343802 0.409592
3935 2 0.267418 0.279262 0.439728
4003 2 0.374487 0.257017 0.409592
4007 2 0.42961 0.353366 0.409592
4098 2 0.41204 0.316413 0.409592
4138 2 0.467163 0.412762 0.409592
4185 2 0.268579 0.477105 0.409592
4229 2 0.406056 0.306651 0.439728
4306 2 0.3682 0.430234 0.409592
4392 2 0.313077 0.333885 0.409592
4395 2 0.344375 0.25978 0.439728
4418 2 0.418598 0.266934 0.409592
4434 2 0.473721 0.363284 0.409592
4460 2 0.257296 0.266934 0.409592
4476 2 0.312419 0.363284 0.409592
4516 2 0.367541 0.459633 0.409592
4558 2 0.476807 0.440152 0.409592
4560 2 0.260382 0.343802 0.409592
4600 2 0.315505 0.440152 0.409592
4644 2 0.421684 0.343802 0.409592
4647 2 0.452982 0.269698 0.439728
4670 2 0.309991 0.257017 0.409592
4686 2 0.365114 0.353366 0.409592
4726 2 0.420236 0.449715 0.409592
4768 2 0.258934 0.449715 0.409592
12 1 0.742614 0.322654 0.439728
81 1 0.581312 0.322654 0.439728
230 1 0.669995 0.271688 0.424707
243 1 0.725118 0.368037 0.424707
266 1 0.508693 0.271688 0.424707
279 1 0.563816 0.368037 0.424707
306 1 0.573566 0.309156 0.409592
346 1 0.628689 0.405506 0.409592
644 1 0.641381 0.255027 0.424613
657 1 0.696504 0.351376 0.424613
693 1 0.535202 0.351376 0.424613
728 1 0.590324 0.447726 0.424613
754 1 0.600332 0.388012 0.409592
770 1 0.655455 0.484361 0.409592
846 1 0.63163 0.313908 0.439728
931 1 0.623884 0.300409 0.409592
978 1 0.679008 0.396759 0.409592
1000 1 0.73413 0.493108 0.409592
1028 1 0.660621 0.368037 0.424707
1331 1 0.73077 0.320545 0.424613
1406 1 0.700224 0.302519 0.424707
1442 1 0.538922 0.302519 0.424707
1445 1 0.594045 0.398868 0.424707
1487 1 0.525828 0.447726 0.424613
1593 1 0.567133 0.313908 0.439728
1671 1 0.674203 0.291663 0.409592
1711 1 0.614511 0.396759 0.409592
1733 1 0.669634 0.493108 0.409592
1782 1 0.508331 0.493108 0.409592
1811 1 0.559388 0.300409 0.409592
2010 1 0.638063 0.309156 0.409592
2050 1 0.693186 0.405506 0.409592
2090 1 0.666274 0.320545 0.424613
2103 1 0.721396 0.416894 0.424613
2126 1 0.504972 0.320545 0.424613
2139 1 0.560095 0.416894 0.424613
2211 1 0.529549 0.398869 0.424707
2283 1 0.690851 0.398869 0.424707
2336 1 0.705877 0.255027 0.424613
2418 1 0.609706 0.291663 0.409592
2458 1 0.664829 0.388012 0.409592
2474 1 0.719952 0.484361 0.409592
2500 1 0.503527 0.388012 0.409592
2547 2 0.563968 0.412762 0.409592
2670 2 0.609931 0.284406 0.409592
2710 2 0.665053 0.380755 0.409592
2726 2 0.720176 0.477105 0.409592
2752 2 0.503752 0.380755 0.409592
2768 2 0.558874 0.477105 0.409592
2878 2 0.603372 0.333885 0.409592
2894 2 0.658496 0.430234 0.409592
2928 2 0.601824 0.289179 0.439728
3006 2 0.708893 0.266934 0.409592
3130 2 0.711979 0.343802 0.409592
3258 2 0.600286 0.257017 0.409592
3384 2 0.637838 0.316413 0.409592
3474 2 0.631854 0.306651 0.439728
3524 2 0.65568 0.477105 0.409592
3545 2 0.538876 0.333885 0.409592
3597 2 0.593999 0.430234 0.409592
3641 2 0.731476 0.25978 0.439728
3709 2 0.644397 0.266934 0.409592
3713 2 0.699519 0.363283 0.409592
3755 2 0.538217 0.363283 0.409592
3797 2 0.647483 0.343802 0.409592
3849 2 0.702606 0.440152 0.409592
3891 2 0.541304 0.440152 0.409592
3919 2 0.697091 0.257017 0.409592
3961 2 0.53579 0.257017 0.409592
3965 2 0.590912 0.353366 0.409592
4017 2 0.646035 0.449715 0.409592
4056 2 0.573342 0.316413 0.409592
4096 2 0.628464 0.412762 0.409592
4140 2 0.734644 0.316413 0.409592
4187 2 0.567358 0.306651 0.439728
4255 2 0.674427 0.284406 0.409592
4259 2 0.72955 0.380755 0.409592
4311 2 0.666979 0.25978 0.439728
4353 2 0.505677 0.25978 0.439728
4432 2 0.690145 0.459633 0.409592
4474 2 0.528844 0.459633 0.409592
4518 2 0.635023 0.363284 0.409592
4521 2 0.666321 0.289179 0.439728
4605 2 0.614284 0.269698 0.439728
4684 2 0.581539 0.449715 0.409592
4731 2 0.719015 0.279262 0.439728
4770 2 0.526416 0.353366 0.409592
4773 2 0.557714 0.279262 0.439728
56 1 0.904806 0.396759 0.409592
149 1 0.849683 0.300409 0.409592
194 1 0.831297 0.271688 0.424707
207 1 0.88642 0.368037 0.424707
304 1 0.789991 0.405506 0.409592
611 1 0.926023 0.302519 0.424707
614 1 0.981146 0.398868 0.424707
656 1 0.912928 0.447726 0.424613
692 1 0.751626 0.447726 0.424613
762 1 0.954234 0.313908 0.439728
804 1 0.792932 0.313908 0.439728
882 1 0.785186 0.300409 0.409592
929 1 0.840309 0.396759 0.409592
951 1 0.895432 0.493108 0.409592
1295 1 0.892072 0.320545 0.424613
1308 1 0.947195 0.416894 0.424613
1370 1 0.861526 0.302519 0.424707
1373 1 0.916649 0.398868 0.424707
1409 1 0.755347 0.398868 0.424707
1547 1 0.931676 0.255027 0.424613
1587 1 0.996807 0.291663 0.409592
1629 1 0.835505 0.291663 0.409592
1669 1 0.890627 0.388012 0.409592
1685 1 0.94575 0.484361 0.409592
1721 1 0.968412 0.322654 0.439728
1770 1 0.80711 0.322654 0.439728
1831 1 0.830936 0.493108 0.409592
1886 1 0.895793 0.271688 0.424707
1931 1 0.950916 0.368037 0.424707
1968 1 0.799365 0.309156 0.409592
2008 1 0.854488 0.405506 0.409592
2052 1 0.960667 0.309156 0.409592
2175 1 0.882699 0.416894 0.424613
2300 1 0.867179 0.255027 0.424613
2345 1 0.922302 0.351376 0.424613
2348 1 0.977425 0.447726 0.424613
2381 1 0.761 0.351376 0.424613
2416 1 0.826131 0.388012 0.409592
2432 1 0.881254 0.484361 0.409592
2502 1 0.771008 0.291663 0.409592
2668 2 0.826355 0.380755 0.409592
2684 2 0.881478 0.477105 0.409592
2760 2 0.857653 0.306651 0.439728
2794 2 0.925977 0.333885 0.409592
2810 2 0.981099 0.430234 0.409592
2836 2 0.764674 0.333885 0.409592
2852 2 0.819798 0.430234 0.409592
2886 2 0.957274 0.25978 0.439728
2964 2 0.870195 0.266934 0.409592
3004 2 0.925318 0.363283 0.409592
3020 2 0.980441 0.459633 0.409592
3088 2 0.873281 0.343802 0.409592
3104 2 0.928404 0.440152 0.409592
3146 2 0.767102 0.440152 0.409592
3174 2 0.92289 0.257017 0.409592
3214 2 0.978013 0.353366 0.409592
3216 2 0.761588 0.257017 0.409592
3256 2 0.816711 0.353366 0.409592
3272 2 0.871834 0.449715 0.409592
3300 2 0.960442 0.316413 0.409592
3342 2 0.79914 0.316413 0.409592
3382 2 0.854263 0.412762 0.409592
3432 2 0.793156 0.306651 0.439728
3516 2 0.954458 0.306651 0.439728
3555 2 0.755301 0.430234 0.409592
3599 2 0.892778 0.25978 0.439728
3667 2 0.805698 0.266934 0.409592
3671 2 0.860821 0.363283 0.409592
3723 2 0.915944 0.459633 0.409592
3765 2 0.754642 0.459633 0.409592
3807 2 0.863908 0.440152 0.409592
3893 2 0.840082 0.269698 0.439728
3923 2 0.752214 0.353366 0.409592
3933 2 0.968639 0.449715 0.409592
3975 2 0.807337 0.449715 0.409592
4019 2 0.944814 0.279262 0.439728
4054 2 0.789766 0.412762 0.409592
4171 2 0.997031 0.284406 0.409592
4213 2 0.835729 0.284406 0.409592
4217 2 0.890852 0.380755 0.409592
4269 2 0.945975 0.477105 0.409592
4350 2 0.990473 0.333885 0.409592
4437 2 0.988924 0.289179 0.439728
4479 2 0.827622 0.289179 0.439728
4563 2 0.775586 0.269698 0.439728
4689 2 0.880317 0.279262 0.439728
4754 2 0.987387 0.257017 0.409592
7 1 0.176354 0.589458 0.409592
949 1 0.111857 0.589458 0.409592
987 1 0.218266 0.744558 0.439728
1683 1 0.162175 0.580711 0.409592
1720 1 0.153769 0.744558 0.439728
1982 1 0.0709127 0.501855 0.409592
2066 1 0.232215 0.501855 0.409592