ITEM: TIMESTEP
0
ITEM: NUMBER OF ATOMS
4786
ITEM: BOX BOUNDS pp pp pp
2.2848750000000000e+00 1.7084875000000000e+01
-1.4968146000000001e+01 -1.6814599999999999e-01
-3.2521610000000003e+01 4.6878391999999998e+01
ITEM: ATOMS id type xs ys zs
334 1 0.14438 0.112732 0.408827
374 1 0.19675 0.21616 0.408547
824 1 0.011065 0.19841 0.407948
2519 2 0.0186634 0.0194844 0.409029
2523 2 0.0808601 0.143476 0.407076
2575 2 0.127673 0.226632 0.406167
2698 2 0.162738 0.0964689 0.40671
2738 2 0.230019 0.189753 0.406774
2740 2 0.0208609 0.0854689 0.404026
2866 2 0.0942943 0.0492719 0.405328
3118 2 0.214938 0.0378174 0.406328
3410 2 0.170487 0.163866 0.40666
3452 2 0.00941153 0.172599 0.407884
3496 2 0.113932 0.0661777 0.408109
3527 2 0.196606 0.0318684 0.40427
3569 2 0.0502334 0.0475926 0.407169
3573 2 0.108061 0.160639 0.407394
3737 2 0.222628 0.0717766 0.408022
3821 2 0.165916 0.0355753 0.407433
3825 2 0.205083 0.137303 0.407769
3867 2 0.0501404 0.151625 0.405805
3989 2 0.110154 0.0613431 0.408577
3993 2 0.159724 0.155294 0.406086
4068 2 0.240719 0.0198556 0.406704
4084 2 0.139204 0.141197 0.408322
4110 2 0.0798335 0.0372411 0.406438
4378 2 0.043738 0.142935 0.403028
4420 2 0.196999 0.155314 0.40799
4446 2 0.152581 0.0499874 0.406286
4462 2 0.0337336 0.167439 0.408881
4630 2 0.147086 0.146803 0.408787
4672 2 0.107258 0.170878 0.408452
4698 2 0.0459549 0.0659684 0.407506
3877 2 0.247908 0.238492 0.407998
964 1 0.41991 0.20939 0.408055
2022 1 0.321107 0.00130236 0.407652
2404 1 0.331806 0.101407 0.408648
2656 2 0.33849 0.0661868 0.407384
2696 2 0.405887 0.16888 0.406657
2782 2 0.43885 0.0458675 0.403918
2822 2 0.482242 0.147991 0.408257
2824 2 0.277614 0.0481022 0.407048
2864 2 0.33704 0.161638 0.407764
2992 2 0.454438 0.081521 0.405738
3076 2 0.365515 0.0348392 0.404844
3116 2 0.432934 0.144283 0.407729
3132 2 0.489362 0.239552 0.406289
3244 2 0.331144 0.0606494 0.407384
3354 2 0.477314 0.0151651 0.406689
3370 2 0.353139 0.151808 0.408407
3396 2 0.310099 0.0391141 0.408847
3531 2 0.262667 0.138138 0.406493
3541 2 0.48035 0.235996 0.404505
3583 2 0.33145 0.246662 0.406634
3695 2 0.362783 0.0551228 0.406847
3699 2 0.423431 0.164004 0.408476
3741 2 0.28173 0.15969 0.40304
3783 2 0.360578 0.145387 0.407483
3905 2 0.436781 0.0654132 0.405727
3947 2 0.264734 0.0773203 0.408003
3951 2 0.323087 0.17529 0.4076
4042 2 0.327689 0.0988207 0.40806
4082 2 0.354442 0.240257 0.407131
4126 2 0.453999 0.137758 0.406049
4241 2 0.402438 0.0736457 0.40853
4245 2 0.438525 0.213238 0.404947
4504 2 0.378966 0.157657 0.404222
4756 2 0.267818 0.155269 0.405591
4418 2 0.405674 0.247104 0.4079
3909 2 0.500931 0.152779 0.407123
868 1 0.518454 0.104648 0.407901
1573 1 0.721977 0.0936564 0.408746
1994 1 0.588158 0.211517 0.408535
2402 1 0.555213 0.187935 0.408278
2603 2 0.70151 0.0388228 0.406338
2654 2 0.557375 0.163455 0.407534
2780 2 0.653672 0.150625 0.406236
2796 2 0.70401 0.242041 0.406931
2950 2 0.589908 0.0766444 0.407757
2990 2 0.659042 0.169015 0.406096
3034 2 0.543531 0.0475952 0.405107
3074 2 0.589146 0.136151 0.40603
3090 2 0.65406 0.233063 0.407499
3160 2 0.659168 0.0645107 0.407196
3200 2 0.720733 0.172488 0.406519
3242 2 0.553719 0.158163 0.408794
3286 2 0.682496 0.124645 0.406801
3326 2 0.727898 0.214738 0.407536
3328 2 0.523788 0.138801 0.407189
3657 2 0.575328 0.153895 0.405074
4040 2 0.519198 0.206176 0.408174
4157 2 0.732292 0.0637393 0.407183
4203 2 0.588119 0.21162 0.408526
4336 2 0.726455 0.156892 0.406436
4362 2 0.670026 0.0437035 0.407409
4656 2 0.612567 0.0580851 0.405016
4782 2 0.722494 0.0535725 0.404895
2607 2 0.746756 0.147782 0.407667
3709 2 0.645861 0.244535 0.40642
784 1 0.949268 0.0939831 0.407122
1123 1 0.915153 0.116335 0.408973
1163 1 0.952246 0.216447 0.407339
1165 1 0.752866 0.11587 0.407519
1205 1 0.828793 0.220125 0.407085
1613 1 0.795195 0.18958 0.40735
1748 1 0.9664 0.109769 0.406291
2561 2 0.85483 0.0283489 0.406348
2565 2 0.905382 0.139547 0.406425
2617 2 0.956794 0.24244 0.404482
3158 2 0.864054 0.146362 0.407788
3412 2 0.95264 0.0605305 0.408347
3454 2 0.796866 0.111329 0.405879
3494 2 0.826457 0.223875 0.405906
3611 2 0.892291 0.0522015 0.408301
3615 2 0.912936 0.149831 0.406387
3863 2 0.984704 0.0244556 0.407757
4161 2 0.791684 0.170412 0.40886
4294 2 0.884596 0.140989 0.4048
4320 2 0.816918 0.044198 0.404675
4488 2 0.974406 0.0531083 0.406995
4530 2 0.818599 0.0617408 0.403788
4572 2 0.940687 0.0525887 0.408247
4588 2 0.816167 0.140757 0.407912
4614 2 0.76431 0.0338918 0.408564
4714 2 0.946504 0.168626 0.409015
4740 2 0.890135 0.0651377 0.408008
3625 2 0.154447 0.257573 0.406609
4124 2 0.186193 0.25244 0.40824
4292 2 0.0948973 0.251066 0.405303
798 1 0.242521 0.26328 0.409049
1179 1 0.0240581 0.309902 0.407015
1219 1 0.0917661 0.415382 0.406921
1627 1 0.0667161 0.382922 0.407758
1643 1 0.107001 0.489356 0.408789
2516 1 0.0284935 0.490274 0.408406
2579 2 0.184995 0.325394 0.406596
2621 2 0.021112 0.341422 0.407073
2631 2 0.227494 0.432042 0.40671
3188 2 0.198581 0.456744 0.408824
3340 2 0.00155591 0.409946 0.406275
3468 2 0.0651729 0.279456 0.407168
3508 2 0.0917221 0.415358 0.406935
3629 2 0.216813 0.350117 0.408133
4175 2 0.0608364 0.35946 0.408017
4227 2 0.109963 0.462051 0.408497
4308 2 0.16391 0.335404 0.40463
4348 2 0.210243 0.443341 0.406897
4390 2 0.0390799 0.454926 0.407763
4502 2 0.0965089 0.259889 0.405998
4602 2 0.0866291 0.336965 0.407692
4642 2 0.153157 0.453771 0.40615
4712 2 0.150735 0.263676 0.407372
4460 2 0.241337 0.275616 0.408408
4560 2 0.244954 0.339321 0.407371
4171 2 0.00127372 0.260533 0.408327
4154 2 0.0292595 0.491126 0.40862
2880 2 0.365311 0.250637 0.407965
1762 1 0.258808 0.295913 0.407537
2920 2 0.256065 0.346718 0.40521
114 1 0.285794 0.49686 0.406281
348 1 0.41523 0.303486 0.408109
388 1 0.469894 0.404743 0.408429
796 1 0.440168 0.383401 0.4087
854 1 0.338589 0.494646 0.408379
2537 2 0.354431 0.333931 0.407682
2589 2 0.398668 0.435217 0.405653
2712 2 0.424239 0.291272 0.407238
2754 2 0.296975 0.28639 0.403762
2936 2 0.297305 0.441124 0.408944
3424 2 0.440769 0.358756 0.406163
3440 2 0.493263 0.454389 0.407336
3466 2 0.280438 0.368754 0.406886
3482 2 0.34459 0.462164 0.406876
3510 2 0.384319 0.262149 0.408488
3587 2 0.379016 0.353065 0.407536
3639 2 0.439504 0.453751 0.408233
3751 2 0.493044 0.259055 0.407501
3839 2 0.480856 0.328922 0.408988
3881 2 0.315757 0.348096 0.407169
4003 2 0.376938 0.260746 0.40739
4007 2 0.428804 0.351259 0.405513
4098 2 0.409511 0.336676 0.40771
4185 2 0.272033 0.455131 0.407244
4392 2 0.326597 0.341066 0.405312
4434 2 0.47097 0.341927 0.407081
4476 2 0.303657 0.362862 0.408865
4516 2 0.364896 0.447949 0.408287
4558 2 0.47314 0.440703 0.409051
4600 2 0.297178 0.430953 0.408876
4644 2 0.417378 0.342053 0.408115
4670 2 0.325232 0.259524 0.404206
4686 2 0.377941 0.364152 0.408923
4768 2 0.262105 0.449637 0.404665
2752 2 0.496131 0.386975 0.406987
1151 1 0.447327 0.499013 0.408479
2838 2 0.549381 0.25968 0.406896
770 1 0.664615 0.480256 0.408142
1711 1 0.607173 0.398412 0.407975
2010 1 0.637475 0.314465 0.408182
2418 1 0.604231 0.295332 0.408346
2458 1 0.676215 0.381216 0.408284
2547 2 0.565271 0.419511 0.408778
2670 2 0.611469 0.263203 0.407632
2726 2 0.692849 0.49424 0.408779
2768 2 0.548416 0.491388 0.403637
2878 2 0.613317 0.353109 0.407797
2894 2 0.639758 0.442868 0.406755
3006 2 0.728114 0.269629 0.405953
3130 2 0.7064 0.334871 0.406586
3258 2 0.604487 0.258003 0.407292
3384 2 0.635867 0.337731 0.408553
3524 2 0.665297 0.452051 0.408484
3545 2 0.533533 0.328893 0.407159
3713 2 0.694698 0.35907 0.406699
3755 2 0.552566 0.350317 0.403476
3797 2 0.643655 0.342157 0.408903
3849 2 0.699252 0.425347 0.407565
3891 2 0.535439 0.43305 0.407937
3919 2 0.709695 0.259272 0.406548
3961 2 0.540967 0.270494 0.407565
3965 2 0.596473 0.367543 0.407651
4017 2 0.654515 0.446553 0.408903
4056 2 0.604263 0.295461 0.408317
4096 2 0.620612 0.435 0.408264
4140 2 0.725862 0.327252 0.405261
4432 2 0.685462 0.438271 0.406509
4474 2 0.526626 0.449972 0.407977
4518 2 0.649448 0.347801 0.407644
4770 2 0.539481 0.344469 0.406108
3555 2 0.745242 0.434344 0.406261
1235 1 0.596058 0.497599 0.408059
4406 2 0.595479 0.497752 0.407367
4334 2 0.936327 0.250064 0.406445
4376 2 0.751839 0.258189 0.406971
4628 2 0.883023 0.264964 0.40544
951 1 0.892423 0.499774 0.406249
1968 1 0.789781 0.307268 0.405791
2416 1 0.824383 0.378241 0.408546
2432 1 0.878691 0.486476 0.408721
2502 1 0.791943 0.268994 0.408491
2668 2 0.82971 0.354284 0.407496
2684 2 0.881811 0.454533 0.40772
2794 2 0.928509 0.339955 0.405061
2810 2 0.977674 0.445814 0.407248
2852 2 0.825426 0.4488 0.40801
3004 2 0.94135 0.363408 0.406658
3088 2 0.863643 0.32883 0.405946
3104 2 0.920975 0.427149 0.408879
3146 2 0.757861 0.439272 0.406361
3174 2 0.92561 0.269652 0.406976
3214 2 0.989633 0.370421 0.407143
3256 2 0.820716 0.34414 0.408377
3272 2 0.872907 0.448454 0.407514
3300 2 0.941412 0.313282 0.405741
3342 2 0.788326 0.330043 0.406995
3667 2 0.795504 0.270279 0.408548
3671 2 0.847158 0.349339 0.405376
3765 2 0.764644 0.460547 0.409035
3933 2 0.975446 0.452355 0.408122
4054 2 0.788287 0.410095 0.406382
4269 2 0.945641 0.459261 0.407966
4350 2 0.999091 0.356539 0.405698
4754 2 0.997801 0.253419 0.405356
4070 2 0.877782 0.485119 0.409005
163 1 0.125165 0.509122 0.405877
2808 2 0.20917 0.532381 0.409075
3270 2 0.0821808 0.55584 0.408404
3937 2 0.0329542 0.564694 0.408452
4231 2 0.162446 0.557864 0.407866
3060 2 0.303294 0.546478 0.408198
4322 2 0.430765 0.526073 0.408204
4742 2 0.478288 0.557252 0.408149
1782 1 0.512347 0.506979 0.407659
852 1 0.548424 0.604156 0.408849
4021 2 0.698388 0.554073 0.408092
4700 2 0.643855 0.565936 0.406903
1731 1 0.893112 0.621633 0.408725
3559 2 0.804413 0.527048 0.408939
3727 2 0.965274 0.564044 0.408352
3769 2 0.822599 0.568001 0.406847
3811 2 0.914838 0.541971 0.408419
3853 2 0.753794 0.521435 0.408316
3979 2 0.854783 0.574279 0.408885
360 1 0.0930822 0.997761 0.408165
996 1 0.132294 0.979898 0.406396
947 1 0.293879 0.963775 0.408302
75 1 0.681755 0.966427 0.40781
124 1 0.52484 0.966022 0.408579
1191 1 0.705108 0.999489 0.407062
3312 2 0.628315 0.99409 0.408792
402 1 0.929432 0.995248 0.405322
1149 1 0.859317 0.995924 0.408924
33 1 0.110533 0.186614 0.412743
59 1 0.21297 0.239822 0.436314
147 1 0.109629 0.0226164 0.43724
162 1 0.160511 0.140402 0.437199
254 1 0.244772 0.0822489 0.427217
309 1 0.0770085 0.231048 0.439254
419 1 0.159973 0.135439 0.427273
422 1 0.220053 0.229149 0.427242
455 1 0.000974834 0.129673 0.424674
458 1 0.0712143 0.22577 0.426273
530 1 0.0178143 0.206651 0.424034
668 1 0.20319 0.0615101 0.425507
704 1 0.0550802 0.0765879 0.423176
717 1 0.09868 0.14985 0.427016
742 1 0.114669 0.0933857 0.409297
782 1 0.169737 0.191478 0.409633
871 1 0.0320236 0.00982165 0.440629
874 1 0.077079 0.135896 0.439068
934 1 0.139794 0.225431 0.438523
966 1 0.190284 0.103736 0.411206
1007 1 0.186793 0.0973964 0.419628
1043 1 0.0194272 0.084791 0.426072
1052 1 0.229494 0.194754 0.423042
1088 1 0.0890466 0.18027 0.422095
1121 1 0.129486 0.209385 0.411221
1207 1 0.0828869 0.103981 0.413199
1210 1 0.123651 0.0441785 0.438679
1476 1 0.0382024 0.159496 0.419733
1548 1 0.174669 0.165311 0.425025
1618 1 0.104213 0.014666 0.439771
1621 1 0.14032 0.118885 0.439164
1674 1 0.191257 0.220158 0.439909
1699 1 0.130629 0.103908 0.411404
1746 1 0.1822 0.204543 0.411533
1795 1 0.0210789 0.216236 0.409959
1847 1 0.00561211 0.191429 0.424681
1957 1 0.0579598 0.0228533 0.439216
1960 1 0.0904557 0.149752 0.439377
2013 1 0.157246 0.239047 0.440783
2064 1 0.154325 0.00569527 0.411775
2079 1 0.17899 0.0281016 0.423204
2114 1 0.248588 0.133805 0.424877
2115 1 0.00499387 0.0209792 0.419342
2150 1 0.0906642 0.124079 0.424804
2186 1 0.17987 0.0923826 0.423055
2222 1 0.022878 0.0890152 0.426211
2235 1 0.097673 0.197068 0.423683
2259 1 0.13353 0.00404082 0.422848
2421 1 0.126708 0.213931 0.441629
2446 1 0.164027 0.103802 0.40977
2486 1 0.235814 0.207608 0.412291
2494 1 0.0553078 0.109977 0.439465
2673 2 0.130605 0.185016 0.44081
2788 2 0.0240187 0.0817079 0.439565
2799 2 0.231068 0.17351 0.44203
2841 2 0.0730988 0.174184 0.441342
2953 2 0.109309 0.0113412 0.440191
2956 2 0.158246 0.0931806 0.442902
3009 2 0.215026 0.186445 0.443757
3040 2 0.118988 0.0757034 0.441948
3093 2 0.159967 0.161775 0.440958
3166 2 0.235512 0.0820347 0.441373
3208 2 0.0734637 0.0946962 0.441439
3261 2 0.125652 0.181881 0.439564
3289 2 0.204551 0.0683614 0.439313
3331 2 0.0509786 0.0494104 0.439612
3334 2 0.091581 0.165902 0.438489
3499 2 0.123513 0.0431268 0.438649
3669 2 0.106693 0.0801939 0.442231
3684 2 0.158969 0.172655 0.440965
3936 2 0.059853 0.190882 0.442653
4132 2 0.0588646 0.115767 0.43951
4174 2 0.056428 0.0204903 0.439119
4215 2 0.140802 0.0950515 0.441029
4230 2 0.192506 0.192104 0.44104
4272 2 0.0391761 0.187487 0.442223
4339 2 0.234747 0.0754674 0.440177
4381 2 0.0796187 0.0828264 0.441097
4586 2 0.026045 0.247573 0.410374
4633 2 0.173649 0.0779211 0.441549
2199 1 0.23038 0.18946 0.422955
3292 2 0.248518 0.162784 0.440229
1332 1 0.0032835 0.241215 0.424237
1463 1 0.00125953 0.0568264 0.424876
3726 2 0.0231736 0.186423 0.442065
3921 2 0.0127145 0.0842686 0.436751
1511 1 0.082192 0.239749 0.428029
2372 1 0.00230273 0.241652 0.424048
1004 1 0.133229 0.00176349 0.424056
613 1 0.00405359 0.0220564 0.453797
1253 1 0.135464 0.0704569 0.45225
1550 1 0.233269 0.0690399 0.453021
2311 1 0.135586 0.071503 0.452904
2347 1 0.00274566 0.0772601 0.454118
1289 1 0.00256331 0.0779268 0.454319
1920 1 0.00398456 0.022541 0.453683
37 1 0.411113 0.0437474 0.437419
60 1 0.470983 0.115464 0.436538
98 1 0.253976 0.0233254 0.440757
113 1 0.311448 0.127068 0.439112
161 1 0.378229 0.242224 0.441142
218 1 0.399975 0.0765799 0.424226
231 1 0.4604 0.172624 0.427866
267 1 0.298204 0.178104 0.427932
292 1 0.305083 0.105972 0.411504
332 1 0.346044 0.218382 0.411119
379 1 0.499108 0.0439837 0.438959
632 1 0.360377 0.0607318 0.4247
645 1 0.409264 0.154484 0.425881
681 1 0.257784 0.154752 0.426659
740 1 0.322565 0.201642 0.411174
787 1 0.469007 0.0228147 0.438724
829 1 0.322289 0.0221145 0.438728
832 1 0.377556 0.138404 0.434701
885 1 0.304436 0.21306 0.439691
917 1 0.346426 0.110254 0.411552
1016 1 0.390896 0.186357 0.423231
1126 1 0.430043 0.0472826 0.438508
1129 1 0.482485 0.134669 0.438221
1168 1 0.265688 0.0318294 0.4393
1171 1 0.325466 0.142256 0.439007
1224 1 0.39731 0.22958 0.437466
1284 1 0.422975 0.0436209 0.427673
1319 1 0.482473 0.116139 0.425668
1394 1 0.425886 0.102603 0.422565
1430 1 0.273902 0.0945406 0.422275
1433 1 0.328301 0.186451 0.420758
1579 1 0.300119 0.110684 0.441898
1632 1 0.364273 0.218703 0.444547
1657 1 0.40396 0.10386 0.41414
1697 1 0.332411 0.205328 0.410932
1751 1 0.481403 0.0311009 0.436653
1797 1 0.276858 0.107771 0.411452
1800 1 0.329419 0.0455898 0.436312
1971 1 0.318278 0.225197 0.439696
1996 1 0.364858 0.120733 0.409446
2036 1 0.412628 0.236226 0.410449
2044 1 0.250175 0.131031 0.443157
2078 1 0.391389 0.137495 0.427116
2091 1 0.463684 0.24523 0.426174
2127 1 0.31923 0.221078 0.424511
2151 1 0.328805 0.0381361 0.42548
2271 1 0.408089 0.218205 0.425854
2324 1 0.423756 0.0439698 0.42768
2369 1 0.486435 0.14321 0.423849
2444 1 0.408714 0.188085 0.410302
2533 2 0.307225 0.222062 0.409829
2577 2 0.444044 0.0554622 0.440518
2592 2 0.475805 0.164716 0.439409
2619 2 0.257415 0.0599975 0.439601
2634 2 0.316764 0.163474 0.442288
2914 2 0.326069 0.0788763 0.440723
2967 2 0.384792 0.185221 0.440731
3051 2 0.327567 0.171324 0.444494
3177 2 0.430226 0.168841 0.442616
3202 2 0.49036 0.0692641 0.410037
3219 2 0.291336 0.189994 0.439936
3345 2 0.308711 0.24625 0.43953
3457 2 0.300103 0.00443559 0.4401
3460 2 0.362228 0.124927 0.440041
3513 2 0.398061 0.236763 0.437576
3627 2 0.471521 0.0808343 0.440923
3779 2 0.32425 0.0516113 0.409491
3835 2 0.424935 0.222577 0.410889
4129 2 0.493851 0.0718948 0.441084
4173 2 0.303623 0.088289 0.439698
4188 2 0.352521 0.200886 0.441715
4297 2 0.380843 0.0683697 0.441738
4300 2 0.459467 0.160216 0.438212
4342 2 0.291763 0.180145 0.439524
4454 2 0.327568 3.08466e-05 0.441659
4507 2 0.38587 0.0803856 0.442913
4591 2 0.334298 0.0661867 0.440549
4594 2 0.39459 0.16834 0.440249
4717 2 0.467616 0.093705 0.441282
4759 2 0.289085 0.0792991 0.43669
3642 2 0.486641 0.174533 0.441246
4549 2 0.499879 0.0770627 0.441043
716 1 0.316146 0.243729 0.426236
469 1 0.372737 0.0754606 0.453792
1514 1 0.389718 0.0792656 0.452116
1397 1 0.50582 0.204844 0.42314
2488 1 0.500612 0.0870353 0.412358
35 1 0.638768 0.200649 0.411006
58 1 0.684078 0.233894 0.438417
82 1 0.73421 0.105075 0.410762
112 1 0.52417 0.220529 0.443204
131 1 0.58522 0.119219 0.410928
182 1 0.564348 0.0721097 0.421774
195 1 0.62369 0.179297 0.425803
290 1 0.515528 0.203776 0.415555
337 1 0.638957 0.052926 0.440154
340 1 0.715811 0.136293 0.440751
382 1 0.542879 0.146352 0.441686
482 1 0.629762 0.0049887 0.421203
599 1 0.664684 0.100074 0.422017
602 1 0.709889 0.198017 0.422742
745 1 0.628215 0.0177837 0.439126
748 1 0.686985 0.115986 0.441597
790 1 0.521949 0.118744 0.439243
801 1 0.740753 0.214742 0.439698
843 1 0.583761 0.229394 0.437872
866 1 0.723974 0.188259 0.412021
915 1 0.575388 0.194938 0.410968
969 1 0.705419 0.0288436 0.439727
1140 1 0.716464 0.235456 0.440561
1182 1 0.5408 0.238831 0.441643
1213 1 0.648378 0.132566 0.444606
1233 1 0.507105 0.0357942 0.409673
1248 1 0.570957 0.0285658 0.42549
1283 1 0.615873 0.153599 0.423452
1296 1 0.699993 0.246222 0.427393
1320 1 0.724819 0.0335307 0.427436
1358 1 0.583134 0.12145 0.421684
1361 1 0.633427 0.196275 0.421156
1535 1 0.663911 0.0585243 0.426778
1590 1 0.515281 0.206271 0.438187
1615 1 0.569101 0.0968896 0.409504
1655 1 0.615629 0.201145 0.410034
1702 1 0.641199 0.0452798 0.441516
1705 1 0.708052 0.133014 0.439157
1754 1 0.540785 0.129594 0.438467
1814 1 0.594848 0.244835 0.436268
1874 1 0.618152 0.0857837 0.424885
1919 1 0.704892 0.189726 0.423144
1952 1 0.732828 0.202391 0.411486
1954 1 0.526397 0.114999 0.409455
2038 1 0.673937 0.100171 0.412901
2041 1 0.732741 0.0323741 0.437215
2163 1 0.610347 0.24245 0.427106
2288 1 0.580877 0.037198 0.425253
2333 1 0.643551 0.134235 0.423129
2491 1 0.545365 0.0352534 0.435735
2535 2 0.601943 0.0191656 0.437596
2550 2 0.642171 0.167551 0.441362
2591 2 0.696901 0.239649 0.441773
2701 2 0.707162 0.0201143 0.441401
2704 2 0.727093 0.123834 0.441035
2743 2 0.517074 0.0237886 0.442403
2746 2 0.589358 0.100653 0.441914
2872 2 0.675469 0.0768912 0.439675
2925 2 0.543282 0.17175 0.439071
3368 2 0.586546 0.243149 0.410026
3418 2 0.526693 0.0983396 0.441204
3429 2 0.738908 0.188078 0.438017
3471 2 0.579346 0.2211 0.440722
3502 2 0.687463 0.0907684 0.438914
3585 2 0.628839 0.0570783 0.44057
3600 2 0.672371 0.187069 0.441626
3653 2 0.565638 0.0569856 0.40947
3712 2 0.705367 0.000276916 0.440368
3793 2 0.595506 0.249228 0.409593
3837 2 0.739472 0.0600913 0.437946
3879 2 0.548817 0.0864534 0.440102
3894 2 0.607534 0.177386 0.440614
4005 2 0.678143 0.0850717 0.438682
4020 2 0.725721 0.179904 0.438437
4087 2 0.671089 0.0627963 0.438479
4090 2 0.710771 0.166572 0.441167
4199 2 0.575274 0.0692912 0.410244
4384 2 0.596762 0.167 0.438221
4404 2 0.506697 0.0365227 0.409542
4423 2 0.726688 0.0754852 0.437605
4465 2 0.535879 0.093386 0.441718
4468 2 0.604894 0.188475 0.441659
4552 2 0.550226 0.162316 0.439972
4636 2 0.71831 0.172325 0.441142
4675 2 0.608371 0.0917706 0.444087
4678 2 0.673471 0.200462 0.443099
4720 2 0.512878 0.185523 0.439027
518 1 0.729631 0.00179123 0.423663
2360 1 0.740729 0.0569734 0.422538
2908 2 0.746639 0.0556474 0.40967
4258 2 0.736215 0.0311756 0.437337
644 1 0.614837 0.245422 0.427078
2336 1 0.701534 0.243222 0.428116
1017 1 0.691523 0.0262876 0.453514
1053 1 0.527181 0.0219176 0.453073
1444 1 0.640182 0.0346574 0.453205
1478 1 0.527089 0.0701719 0.454445
2120 1 0.612322 0.0833019 0.453279
2192 1 0.528819 0.0177022 0.453801
2998 2 0.998145 0.0842633 0.448198
3135 2 0.98918 0.199016 0.440607
2452 1 0.75412 0.126905 0.439863
13 1 0.891842 0.0950066 0.412306
38 1 0.940976 0.0250051 0.445749
96 1 0.941128 0.182368 0.411618
145 1 0.807732 0.206859 0.410501
295 1 0.822504 0.0362872 0.442319
298 1 0.874726 0.129124 0.439078
376 1 0.977967 0.121513 0.412048
393 1 0.774477 0.239648 0.439381
410 1 0.93841 0.0313457 0.42489
446 1 0.786271 0.027905 0.421821
491 1 0.834526 0.137346 0.424719
494 1 0.898532 0.215618 0.424173
527 1 0.962297 0.12525 0.424758
563 1 0.827109 0.100792 0.421333
566 1 0.867134 0.186802 0.424903
759 1 0.898624 0.219687 0.43953
826 1 0.81629 0.110162 0.413847
920 1 0.871281 0.0241682 0.439909
923 1 0.916226 0.141334 0.438053
972 1 0.770997 0.129493 0.438246
983 1 0.977 0.230614 0.439932
1079 1 0.85549 0.0796942 0.422936
1247 1 0.775163 0.137042 0.427171
1260 1 0.81642 0.228355 0.426134
1499 1 0.834196 0.0476264 0.428701
1512 1 0.883011 0.147317 0.424651
1571 1 0.932468 0.201612 0.410207
1660 1 0.931183 0.0320911 0.438519
1663 1 0.961374 0.132091 0.437584
1716 1 0.90994 0.223162 0.439889
1765 1 0.759378 0.229005 0.43674
1803 1 0.851136 0.129831 0.439555
1838 1 0.794003 0.0865386 0.424829
1883 1 0.850592 0.185213 0.425876
1910 1 0.94672 0.0811195 0.426197
1999 1 0.890866 0.0427737 0.439178
2002 1 0.930433 0.148624 0.440194
2055 1 0.99329 0.240672 0.435812
2258 1 0.886661 0.0888764 0.420495
2297 1 0.790213 0.148622 0.424792
2407 1 0.862206 0.0132287 0.441879
2410 1 0.898632 0.126497 0.438602
2463 1 0.962189 0.197364 0.439372
2505 1 0.807405 0.236212 0.435871
2662 2 0.909426 0.0959006 0.44
2715 2 0.981381 0.205214 0.440295
2757 2 0.799905 0.214507 0.441053
2830 2 0.84616 0.086902 0.44055
2883 2 0.908273 0.176753 0.443407
2906 2 0.981374 0.156511 0.410733
2948 2 0.80311 0.162907 0.409393
3032 2 0.757065 0.157492 0.410682
3082 2 0.941238 0.0739904 0.438028
3124 2 0.787976 0.0748834 0.439203
3250 2 0.902932 0.0899106 0.439772
3284 2 0.931493 0.201371 0.410245
3373 2 0.885208 0.0718491 0.441825
3376 2 0.930488 0.167809 0.442516
3543 2 0.798129 0.0649592 0.439553
3558 2 0.829761 0.167911 0.440696
3711 2 0.940469 0.0837574 0.438858
3753 2 0.787485 0.100182 0.443982
3768 2 0.843608 0.184799 0.444444
3795 2 0.8958 0.0809255 0.442097
3810 2 0.939902 0.174396 0.442642
3852 2 0.781796 0.158001 0.440512
3963 2 0.842437 0.100686 0.442011
3978 2 0.893176 0.196027 0.443101
4045 2 0.819035 0.0621919 0.439421
4048 2 0.89923 0.12709 0.437894
4152 2 0.925629 0.0414242 0.409197
4216 2 0.891214 0.0425587 0.439139
4257 2 0.964145 0.0992939 0.439535
4426 2 0.771665 0.172762 0.440486
4510 2 0.94554 0.188102 0.439498
4546 2 0.982794 0.148145 0.411167
4762 2 0.833042 0.182536 0.442142
3922 2 0.79994 0.0087071 0.442521
2084 1 0.759536 0.0764228 0.454504
188 1 0.919047 0.0210955 0.453915
683 1 0.766225 0.0772483 0.454203
1372 1 0.920077 0.0165624 0.45368
3387 2 0.148274 0.269055 0.440513
4059 2 0.0780036 0.259031 0.440676
4544 2 0.194932 0.264291 0.410297
40 1 0.166226 0.287513 0.411897
100 1 0.00779587 0.301521 0.41099
110 1 0.214012 0.38679 0.409424
159 1 0.0817604 0.397011 0.410087
503 1 0.126743 0.352945 0.427222
506 1 0.18793 0.416816 0.426337
539 1 0.239233 0.332097 0.423904
575 1 0.0737998 0.291585 0.422941
578 1 0.130242 0.393266 0.427253
840 1 0.0819582 0.294548 0.412293
880 1 0.000247875 0.379982 0.413585
939 1 0.200029 0.36935 0.441861
988 1 0.0491095 0.369148 0.437478
1091 1 0.150018 0.280521 0.423653
1137 1 0.185499 0.290244 0.410341
1177 1 0.22978 0.406345 0.409322
1259 1 0.0680794 0.34398 0.425663
1272 1 0.103264 0.442868 0.426278
1524 1 0.14254 0.346758 0.425544
1559 1 0.203243 0.454451 0.427392
1585 1 0.203086 0.391209 0.411088
1677 1 0.249936 0.337259 0.437577
1819 1 0.124537 0.350242 0.43966
1850 1 0.0737601 0.291578 0.422942
1895 1 0.13037 0.393322 0.42743
1922 1 0.214246 0.271328 0.422444
1966 1 0.0113518 0.394982 0.413127
2270 1 0.149485 0.280714 0.423902
2309 1 0.0574798 0.345991 0.425746
2312 1 0.121123 0.45939 0.426326
2424 1 0.17101 0.333232 0.443615
2466 1 0.0200323 0.345125 0.440687
2676 2 0.183723 0.293469 0.441439
2718 2 0.0140142 0.323615 0.444085
2844 2 0.124459 0.278427 0.441923
2922 2 0.0181072 0.253234 0.411071
2962 2 0.0733796 0.355367 0.409171
2978 2 0.128651 0.464044 0.409843
3046 2 0.0288605 0.347474 0.409189
3062 2 0.0957757 0.439121 0.410878
3096 2 0.218735 0.273683 0.440968
3138 2 0.0558605 0.268013 0.442012
3172 2 0.137161 0.347456 0.409207
3230 2 0.025374 0.469773 0.409318
3264 2 0.164621 0.281158 0.438978
3298 2 0.203669 0.390514 0.41134
3426 2 0.198151 0.270723 0.410639
3557 2 0.0484697 0.261081 0.442188
3681 2 0.0944057 0.447761 0.41025
3725 2 0.218362 0.281445 0.440963
3767 2 0.0544788 0.292205 0.445889
3809 2 0.152198 0.271734 0.440702
3851 2 0.00910287 0.269618 0.438304
3977 2 0.122165 0.296862 0.444548
4271 2 0.246071 0.294218 0.441397
4728 2 0.214865 0.357764 0.409971
1475 1 0.242075 0.250157 0.42581
3303 2 0.476504 0.270242 0.439455
54 1 0.383523 0.383639 0.41337
61 1 0.435449 0.482997 0.411601
130 1 0.431417 0.35536 0.437906
390 1 0.252662 0.319191 0.410726
431 1 0.43251 0.338501 0.428705
434 1 0.480368 0.437142 0.429128
467 1 0.273127 0.320472 0.42835
470 1 0.349636 0.439576 0.429182
542 1 0.274452 0.394579 0.423933
680 1 0.477832 0.251061 0.424555
729 1 0.381471 0.340214 0.425806
756 1 0.390399 0.287525 0.409762
838 1 0.275124 0.388104 0.41165
890 1 0.365862 0.358083 0.443464
980 1 0.467515 0.300684 0.412834
1019 1 0.455135 0.286875 0.421769
1055 1 0.284328 0.287733 0.424475
1100 1 0.368245 0.384112 0.425152
1135 1 0.398803 0.404587 0.411197
1221 1 0.36557 0.300063 0.41423
1344 1 0.278305 0.44035 0.428075
1488 1 0.305366 0.350089 0.42524
1523 1 0.369715 0.457437 0.427511
1560 1 0.446399 0.357391 0.426629
1601 1 0.269413 0.479411 0.40923
1635 1 0.40851 0.330488 0.441843
1713 1 0.410651 0.300735 0.410295
1760 1 0.453479 0.392803 0.411086
1809 1 0.287578 0.407685 0.413857
1859 1 0.274424 0.39459 0.423935
2162 1 0.360605 0.327103 0.425893
2198 1 0.449354 0.296401 0.421046
2234 1 0.284152 0.288168 0.424454
2247 1 0.364741 0.38126 0.424462
2384 1 0.280331 0.446268 0.427669
2460 1 0.457483 0.289102 0.410495
2508 1 0.337583 0.332884 0.438376
2802 2 0.273913 0.270256 0.443209
2970 2 0.431818 0.293846 0.443661
3012 2 0.291207 0.302762 0.445992
3054 2 0.378994 0.2718 0.441456
3222 2 0.332048 0.303857 0.442832
3683 2 0.394102 0.280744 0.443349
3935 2 0.270337 0.283719 0.443469
4138 2 0.474438 0.431476 0.410516
4229 2 0.408878 0.292209 0.441819
4306 2 0.367489 0.446249 0.412028
4395 2 0.342918 0.286857 0.442148
4647 2 0.449852 0.269302 0.443358
4726 2 0.43781 0.458759 0.409363
2633 2 0.529235 0.268927 0.439001
812 1 0.50235 0.4849 0.410878
1064 1 0.501237 0.386853 0.426363
3180 2 0.506205 0.292854 0.443591
12 1 0.746366 0.339493 0.43773
81 1 0.583557 0.370712 0.438517
230 1 0.671692 0.280787 0.423023
243 1 0.749256 0.389756 0.428326
266 1 0.532827 0.285262 0.427217
279 1 0.582072 0.369068 0.427401
306 1 0.581295 0.3023 0.411823
346 1 0.618822 0.409655 0.410267
657 1 0.669234 0.339547 0.427541
693 1 0.533333 0.341106 0.425986
728 1 0.596283 0.461102 0.427506
754 1 0.596622 0.391562 0.409476
846 1 0.643002 0.34605 0.438718
931 1 0.620209 0.304224 0.410503
978 1 0.687189 0.394708 0.409209
1000 1 0.743844 0.491874 0.410148
1028 1 0.660487 0.378992 0.423713
1406 1 0.695368 0.305797 0.423179
1442 1 0.541907 0.280297 0.424599
1445 1 0.593493 0.379473 0.425335
1487 1 0.508137 0.472986 0.42576
1593 1 0.559437 0.339215 0.445037
1671 1 0.669989 0.296233 0.414831
1733 1 0.683678 0.494597 0.41043
1811 1 0.550058 0.302072 0.411299
2050 1 0.69945 0.414442 0.415045
2090 1 0.66894 0.339438 0.427507
2103 1 0.722266 0.448059 0.429291
2126 1 0.533417 0.341165 0.425984
2139 1 0.575086 0.442204 0.428432
2211 1 0.5035 0.385628 0.427331
2283 1 0.676142 0.401431 0.424724
2474 1 0.715527 0.493714 0.412161
2500 1 0.505039 0.402367 0.412748
2710 2 0.671043 0.360989 0.409299
2928 2 0.604081 0.28614 0.442623
3474 2 0.638505 0.314502 0.444672
3597 2 0.601983 0.443894 0.409804
3641 2 0.735935 0.275221 0.442993
4187 2 0.57624 0.299425 0.442007
4255 2 0.666774 0.298619 0.409892
4259 2 0.695892 0.410424 0.409229
4311 2 0.658639 0.25347 0.439353
4353 2 0.504749 0.276948 0.441281
4521 2 0.661071 0.31045 0.442748
4605 2 0.611163 0.259222 0.440478
4684 2 0.601924 0.459644 0.411778
4731 2 0.725982 0.299613 0.444731
4773 2 0.545561 0.283486 0.436672
692 1 0.749743 0.466538 0.427584
362 1 0.688833 0.498342 0.409104
351 1 0.921603 0.256425 0.439975
2549 2 0.881694 0.250133 0.440589
3048 2 0.818306 0.261291 0.409296
4101 2 0.903013 0.268128 0.440275
4143 2 0.76337 0.274601 0.440512
1331 1 0.752954 0.328218 0.425475
56 1 0.910535 0.393553 0.411528
149 1 0.863457 0.311335 0.411278
194 1 0.824024 0.27186 0.423234
207 1 0.89292 0.38138 0.423607
304 1 0.786512 0.390256 0.413436
611 1 0.937085 0.30136 0.423945
614 1 0.98543 0.387286 0.425886
656 1 0.908385 0.457898 0.427495
762 1 0.98548 0.300205 0.440096
804 1 0.791108 0.332832 0.439789
882 1 0.789336 0.292619 0.409735
929 1 0.843013 0.387727 0.411045
1295 1 0.904605 0.345498 0.425163
1308 1 0.973269 0.444913 0.429035
1370 1 0.86288 0.314871 0.425994
1373 1 0.905403 0.388069 0.422854
1409 1 0.768562 0.39499 0.428264
1547 1 0.936657 0.256015 0.426285
1587 1 0.996122 0.287388 0.409683
1629 1 0.860532 0.283462 0.409699
1669 1 0.888076 0.39301 0.410302
1685 1 0.936869 0.494471 0.409226
1721 1 0.976444 0.374321 0.440753
1770 1 0.802295 0.37375 0.44266
1886 1 0.892212 0.273145 0.426864
1931 1 0.97971 0.384799 0.426238
2008 1 0.864398 0.399838 0.410021
2052 1 0.953766 0.2962 0.413086
2175 1 0.868134 0.435602 0.430128
2300 1 0.87637 0.25191 0.423649
2345 1 0.905355 0.344478 0.424841
2348 1 0.979037 0.452016 0.427595
2381 1 0.753435 0.330066 0.424723
2760 2 0.861048 0.305816 0.441059
2836 2 0.765679 0.338022 0.409095
2886 2 0.937848 0.264717 0.439459
2964 2 0.860463 0.283661 0.409673
3020 2 0.987757 0.458763 0.410873
3216 2 0.768864 0.258701 0.409373
3382 2 0.854746 0.436 0.409833
3432 2 0.795738 0.299507 0.442079
3516 2 0.949747 0.295568 0.441771
3599 2 0.895606 0.269632 0.440067
3723 2 0.920538 0.439233 0.409291
3807 2 0.863056 0.442313 0.410055
3893 2 0.825487 0.284888 0.441196
3923 2 0.764767 0.342844 0.412327
3975 2 0.811453 0.467727 0.409835