LAMMPS data file. CGCMM style. atom_style full generated by VMD/TopoTools v1.5 on Thu Dec 18 14:00:14 MSK 2025
 192 atoms
 300 bonds
 0 angles
 0 dihedrals
 0 impropers
 2 atom types
 1 bond types
 0 angle types
 0 dihedral types
 0 improper types
 -7.243751 19.956250  xlo xhi
 -7.243751 19.956250  ylo yhi
 -7.243751 19.956250  zlo zhi

# Pair Coeffs
#
# 1  Co
# 2  Ta

# Bond Coeffs
#
# 1  

 Masses

 1 58.933201 # Co
 2 180.947906 # Ta

 Atoms

1 1 2 0.000000 2.542500 2.542500 2.542500 # Ta 
2 1 2 0.000000 2.542500 2.542500 9.322500 # Ta 
3 1 2 0.000000 2.542500 9.322500 2.542500 # Ta 
4 1 2 0.000000 2.542500 9.322500 9.322500 # Ta 
5 1 2 0.000000 9.322500 2.542500 2.542500 # Ta 
6 1 2 0.000000 9.322500 2.542500 9.322500 # Ta 
7 1 2 0.000000 9.322500 9.322500 2.542500 # Ta 
8 1 2 0.000000 9.322500 9.322500 9.322500 # Ta 
9 1 2 0.000000 4.237500 4.237500 4.237500 # Ta 
10 1 2 0.000000 4.237500 4.237500 11.017500 # Ta 
11 1 2 0.000000 4.237500 11.017500 4.237500 # Ta 
12 1 2 0.000000 4.237500 11.017500 11.017500 # Ta 
13 1 2 0.000000 11.017500 4.237500 4.237500 # Ta 
14 1 2 0.000000 11.017500 4.237500 11.017500 # Ta 
15 1 2 0.000000 11.017500 11.017500 4.237500 # Ta 
16 1 2 0.000000 11.017500 11.017500 11.017500 # Ta 
17 1 2 0.000000 2.542500 5.932500 5.932500 # Ta 
18 1 2 0.000000 2.542500 5.932500 12.712500 # Ta 
19 1 2 0.000000 2.542500 12.712500 5.932500 # Ta 
20 1 2 0.000000 2.542500 12.712500 12.712500 # Ta 
21 1 2 0.000000 9.322500 5.932500 5.932500 # Ta 
22 1 2 0.000000 9.322500 5.932500 12.712500 # Ta 
23 1 2 0.000000 9.322500 12.712500 5.932500 # Ta 
24 1 2 0.000000 9.322500 12.712500 12.712500 # Ta 
25 1 2 0.000000 0.847500 4.237500 0.847500 # Ta 
26 1 2 0.000000 0.847500 4.237500 7.627500 # Ta 
27 1 2 0.000000 0.847500 11.017500 0.847500 # Ta 
28 1 2 0.000000 0.847500 11.017500 7.627500 # Ta 
29 1 2 0.000000 7.627500 4.237500 0.847500 # Ta 
30 1 2 0.000000 7.627500 4.237500 7.627500 # Ta 
31 1 2 0.000000 7.627500 11.017500 0.847500 # Ta 
32 1 2 0.000000 7.627500 11.017500 7.627500 # Ta 
33 1 2 0.000000 5.932500 2.542500 5.932500 # Ta 
34 1 2 0.000000 5.932500 2.542500 12.712500 # Ta 
35 1 2 0.000000 5.932500 9.322500 5.932500 # Ta 
36 1 2 0.000000 5.932500 9.322500 12.712500 # Ta 
37 1 2 0.000000 12.712500 2.542500 5.932500 # Ta 
38 1 2 0.000000 12.712500 2.542500 12.712500 # Ta 
39 1 2 0.000000 12.712500 9.322500 5.932500 # Ta 
40 1 2 0.000000 12.712500 9.322500 12.712500 # Ta 
41 1 2 0.000000 4.237500 0.847500 0.847500 # Ta 
42 1 2 0.000000 4.237500 0.847500 7.627500 # Ta 
43 1 2 0.000000 4.237500 7.627500 0.847500 # Ta 
44 1 2 0.000000 4.237500 7.627500 7.627500 # Ta 
45 1 2 0.000000 11.017500 0.847500 0.847500 # Ta 
46 1 2 0.000000 11.017500 0.847500 7.627500 # Ta 
47 1 2 0.000000 11.017500 7.627500 0.847500 # Ta 
48 1 2 0.000000 11.017500 7.627500 7.627500 # Ta 
49 1 2 0.000000 5.932500 5.932500 2.542500 # Ta 
50 1 2 0.000000 5.932500 5.932500 9.322500 # Ta 
51 1 2 0.000000 5.932500 12.712500 2.542500 # Ta 
52 1 2 0.000000 5.932500 12.712500 9.322500 # Ta 
53 1 2 0.000000 12.712500 5.932500 2.542500 # Ta 
54 1 2 0.000000 12.712500 5.932500 9.322500 # Ta 
55 1 2 0.000000 12.712500 12.712500 2.542500 # Ta 
56 1 2 0.000000 12.712500 12.712500 9.322500 # Ta 
57 1 2 0.000000 0.847500 0.847500 4.237500 # Ta 
58 1 2 0.000000 0.847500 0.847500 11.017500 # Ta 
59 1 2 0.000000 0.847500 7.627500 4.237500 # Ta 
60 1 2 0.000000 0.847500 7.627500 11.017500 # Ta 
61 1 2 0.000000 7.627500 0.847500 4.237500 # Ta 
62 1 2 0.000000 7.627500 0.847500 11.017500 # Ta 
63 1 2 0.000000 7.627500 7.627500 4.237500 # Ta 
64 1 2 0.000000 7.627500 7.627500 11.017500 # Ta 
65 1 1 0.000000 0.000000 0.000000 0.000000 # Co 
66 1 1 0.000000 0.000000 0.000000 6.780000 # Co 
67 1 1 0.000000 0.000000 6.780000 0.000000 # Co 
68 1 1 0.000000 0.000000 6.780000 6.780000 # Co 
69 1 1 0.000000 6.780000 0.000000 0.000000 # Co 
70 1 1 0.000000 6.780000 0.000000 6.780000 # Co 
71 1 1 0.000000 6.780000 6.780000 0.000000 # Co 
72 1 1 0.000000 6.780000 6.780000 6.780000 # Co 
73 1 1 0.000000 0.000000 1.695000 1.695000 # Co 
74 1 1 0.000000 0.000000 1.695000 8.475000 # Co 
75 1 1 0.000000 0.000000 8.475000 1.695000 # Co 
76 1 1 0.000000 0.000000 8.475000 8.475000 # Co 
77 1 1 0.000000 6.780000 1.695000 1.695000 # Co 
78 1 1 0.000000 6.780000 1.695000 8.475000 # Co 
79 1 1 0.000000 6.780000 8.475000 1.695000 # Co 
80 1 1 0.000000 6.780000 8.475000 8.475000 # Co 
81 1 1 0.000000 5.085000 1.695000 3.390000 # Co 
82 1 1 0.000000 5.085000 1.695000 10.170000 # Co 
83 1 1 0.000000 5.085000 8.475000 3.390000 # Co 
84 1 1 0.000000 5.085000 8.475000 10.170000 # Co 
85 1 1 0.000000 11.865000 1.695000 3.390000 # Co 
86 1 1 0.000000 11.865000 1.695000 10.170000 # Co 
87 1 1 0.000000 11.865000 8.475000 3.390000 # Co 
88 1 1 0.000000 11.865000 8.475000 10.170000 # Co 
89 1 1 0.000000 5.085000 0.000000 5.085000 # Co 
90 1 1 0.000000 5.085000 0.000000 11.865000 # Co 
91 1 1 0.000000 5.085000 6.780000 5.085000 # Co 
92 1 1 0.000000 5.085000 6.780000 11.865000 # Co 
93 1 1 0.000000 11.865000 0.000000 5.085000 # Co 
94 1 1 0.000000 11.865000 0.000000 11.865000 # Co 
95 1 1 0.000000 11.865000 6.780000 5.085000 # Co 
96 1 1 0.000000 11.865000 6.780000 11.865000 # Co 
97 1 1 0.000000 3.390000 5.085000 1.695000 # Co 
98 1 1 0.000000 3.390000 5.085000 8.475000 # Co 
99 1 1 0.000000 3.390000 11.865000 1.695000 # Co 
100 1 1 0.000000 3.390000 11.865000 8.475000 # Co 
101 1 1 0.000000 10.170000 5.085000 1.695000 # Co 
102 1 1 0.000000 10.170000 5.085000 8.475000 # Co 
103 1 1 0.000000 10.170000 11.865000 1.695000 # Co 
104 1 1 0.000000 10.170000 11.865000 8.475000 # Co 
105 1 1 0.000000 1.695000 5.085000 3.390000 # Co 
106 1 1 0.000000 1.695000 5.085000 10.170000 # Co 
107 1 1 0.000000 1.695000 11.865000 3.390000 # Co 
108 1 1 0.000000 1.695000 11.865000 10.170000 # Co 
109 1 1 0.000000 8.475000 5.085000 3.390000 # Co 
110 1 1 0.000000 8.475000 5.085000 10.170000 # Co 
111 1 1 0.000000 8.475000 11.865000 3.390000 # Co 
112 1 1 0.000000 8.475000 11.865000 10.170000 # Co 
113 1 1 0.000000 1.695000 3.390000 5.085000 # Co 
114 1 1 0.000000 1.695000 3.390000 11.865000 # Co 
115 1 1 0.000000 1.695000 10.170000 5.085000 # Co 
116 1 1 0.000000 1.695000 10.170000 11.865000 # Co 
117 1 1 0.000000 8.475000 3.390000 5.085000 # Co 
118 1 1 0.000000 8.475000 3.390000 11.865000 # Co 
119 1 1 0.000000 8.475000 10.170000 5.085000 # Co 
120 1 1 0.000000 8.475000 10.170000 11.865000 # Co 
121 1 1 0.000000 0.000000 3.390000 3.390000 # Co 
122 1 1 0.000000 0.000000 3.390000 10.170000 # Co 
123 1 1 0.000000 0.000000 10.170000 3.390000 # Co 
124 1 1 0.000000 0.000000 10.170000 10.170000 # Co 
125 1 1 0.000000 6.780000 3.390000 3.390000 # Co 
126 1 1 0.000000 6.780000 3.390000 10.170000 # Co 
127 1 1 0.000000 6.780000 10.170000 3.390000 # Co 
128 1 1 0.000000 6.780000 10.170000 10.170000 # Co 
129 1 1 0.000000 1.695000 1.695000 0.000000 # Co 
130 1 1 0.000000 1.695000 1.695000 6.780000 # Co 
131 1 1 0.000000 1.695000 8.475000 0.000000 # Co 
132 1 1 0.000000 1.695000 8.475000 6.780000 # Co 
133 1 1 0.000000 8.475000 1.695000 0.000000 # Co 
134 1 1 0.000000 8.475000 1.695000 6.780000 # Co 
135 1 1 0.000000 8.475000 8.475000 0.000000 # Co 
136 1 1 0.000000 8.475000 8.475000 6.780000 # Co 
137 1 1 0.000000 1.695000 0.000000 1.695000 # Co 
138 1 1 0.000000 1.695000 0.000000 8.475000 # Co 
139 1 1 0.000000 1.695000 6.780000 1.695000 # Co 
140 1 1 0.000000 1.695000 6.780000 8.475000 # Co 
141 1 1 0.000000 8.475000 0.000000 1.695000 # Co 
142 1 1 0.000000 8.475000 0.000000 8.475000 # Co 
143 1 1 0.000000 8.475000 6.780000 1.695000 # Co 
144 1 1 0.000000 8.475000 6.780000 8.475000 # Co 
145 1 1 0.000000 3.390000 1.695000 5.085000 # Co 
146 1 1 0.000000 3.390000 1.695000 11.865000 # Co 
147 1 1 0.000000 3.390000 8.475000 5.085000 # Co 
148 1 1 0.000000 3.390000 8.475000 11.865000 # Co 
149 1 1 0.000000 10.170000 1.695000 5.085000 # Co 
150 1 1 0.000000 10.170000 1.695000 11.865000 # Co 
151 1 1 0.000000 10.170000 8.475000 5.085000 # Co 
152 1 1 0.000000 10.170000 8.475000 11.865000 # Co 
153 1 1 0.000000 0.000000 5.085000 5.085000 # Co 
154 1 1 0.000000 0.000000 5.085000 11.865000 # Co 
155 1 1 0.000000 0.000000 11.865000 5.085000 # Co 
156 1 1 0.000000 0.000000 11.865000 11.865000 # Co 
157 1 1 0.000000 6.780000 5.085000 5.085000 # Co 
158 1 1 0.000000 6.780000 5.085000 11.865000 # Co 
159 1 1 0.000000 6.780000 11.865000 5.085000 # Co 
160 1 1 0.000000 6.780000 11.865000 11.865000 # Co 
161 1 1 0.000000 5.085000 3.390000 1.695000 # Co 
162 1 1 0.000000 5.085000 3.390000 8.475000 # Co 
163 1 1 0.000000 5.085000 10.170000 1.695000 # Co 
164 1 1 0.000000 5.085000 10.170000 8.475000 # Co 
165 1 1 0.000000 11.865000 3.390000 1.695000 # Co 
166 1 1 0.000000 11.865000 3.390000 8.475000 # Co 
167 1 1 0.000000 11.865000 10.170000 1.695000 # Co 
168 1 1 0.000000 11.865000 10.170000 8.475000 # Co 
169 1 1 0.000000 5.085000 5.085000 0.000000 # Co 
170 1 1 0.000000 5.085000 5.085000 6.780000 # Co 
171 1 1 0.000000 5.085000 11.865000 0.000000 # Co 
172 1 1 0.000000 5.085000 11.865000 6.780000 # Co 
173 1 1 0.000000 11.865000 5.085000 0.000000 # Co 
174 1 1 0.000000 11.865000 5.085000 6.780000 # Co 
175 1 1 0.000000 11.865000 11.865000 0.000000 # Co 
176 1 1 0.000000 11.865000 11.865000 6.780000 # Co 
177 1 1 0.000000 3.390000 0.000000 3.390000 # Co 
178 1 1 0.000000 3.390000 0.000000 10.170000 # Co 
179 1 1 0.000000 3.390000 6.780000 3.390000 # Co 
180 1 1 0.000000 3.390000 6.780000 10.170000 # Co 
181 1 1 0.000000 10.170000 0.000000 3.390000 # Co 
182 1 1 0.000000 10.170000 0.000000 10.170000 # Co 
183 1 1 0.000000 10.170000 6.780000 3.390000 # Co 
184 1 1 0.000000 10.170000 6.780000 10.170000 # Co 
185 1 1 0.000000 3.390000 3.390000 0.000000 # Co 
186 1 1 0.000000 3.390000 3.390000 6.780000 # Co 
187 1 1 0.000000 3.390000 10.170000 0.000000 # Co 
188 1 1 0.000000 3.390000 10.170000 6.780000 # Co 
189 1 1 0.000000 10.170000 3.390000 0.000000 # Co 
190 1 1 0.000000 10.170000 3.390000 6.780000 # Co 
191 1 1 0.000000 10.170000 10.170000 0.000000 # Co 
192 1 1 0.000000 10.170000 10.170000 6.780000 # Co 

 Bonds

1 1 65 73
2 1 65 129
3 1 65 137
4 1 66 130
5 1 66 74
6 1 66 138
7 1 67 139
8 1 67 75
9 1 67 131
10 1 68 153
11 1 68 132
12 1 68 140
13 1 68 76
14 1 69 77
15 1 69 133
16 1 69 141
17 1 70 89
18 1 70 134
19 1 70 78
20 1 70 142
21 1 71 169
22 1 71 143
23 1 71 79
24 1 71 135
25 1 72 91
26 1 72 157
27 1 72 170
28 1 72 136
29 1 72 144
30 1 72 80
31 1 73 129
32 1 73 137
33 1 73 121
34 1 74 138
35 1 74 122
36 1 74 130
37 1 75 139
38 1 75 131
39 1 75 123
40 1 76 124
41 1 76 132
42 1 76 140
43 1 77 133
44 1 77 141
45 1 77 161
46 1 77 81
47 1 77 125
48 1 78 142
49 1 78 162
50 1 78 82
51 1 78 126
52 1 78 134
53 1 79 135
54 1 79 163
55 1 79 83
56 1 79 127
57 1 79 143
58 1 80 136
59 1 80 164
60 1 80 84
61 1 80 128
62 1 80 144
63 1 81 125
64 1 81 89
65 1 81 145
66 1 81 177
67 1 81 161
68 1 82 162
69 1 82 90
70 1 82 126
71 1 82 146
72 1 82 178
73 1 83 163
74 1 83 179
75 1 83 127
76 1 83 147
77 1 83 91
78 1 84 164
79 1 84 92
80 1 84 180
81 1 84 128
82 1 84 148
83 1 85 165
84 1 85 181
85 1 85 93
86 1 85 149
87 1 86 166
88 1 86 94
89 1 86 150
90 1 86 182
91 1 87 167
92 1 87 183
93 1 87 151
94 1 87 95
95 1 88 152
96 1 88 168
97 1 88 96
98 1 88 184
99 1 89 177
100 1 89 145
101 1 90 146
102 1 90 178
103 1 91 157
104 1 91 170
105 1 91 147
106 1 91 179
107 1 92 158
108 1 92 180
109 1 92 148
110 1 93 149
111 1 93 181
112 1 94 150
113 1 94 182
114 1 95 183
115 1 95 174
116 1 95 151
117 1 96 184
118 1 96 152
119 1 97 185
120 1 97 169
121 1 97 179
122 1 97 161
123 1 97 105
124 1 97 139
125 1 98 186
126 1 98 170
127 1 98 180
128 1 98 162
129 1 98 106
130 1 98 140
131 1 99 187
132 1 99 163
133 1 99 171
134 1 99 107
135 1 100 164
136 1 100 108
137 1 100 172
138 1 100 188
139 1 101 143
140 1 101 165
141 1 101 189
142 1 101 173
143 1 101 183
144 1 101 109
145 1 102 166
146 1 102 184
147 1 102 110
148 1 102 144
149 1 102 190
150 1 102 174
151 1 103 167
152 1 103 175
153 1 103 191
154 1 103 111
155 1 104 176
156 1 104 192
157 1 104 168
158 1 104 112
159 1 105 139
160 1 105 121
161 1 105 179
162 1 105 153
163 1 105 113
164 1 106 114
165 1 106 122
166 1 106 154
167 1 106 180
168 1 106 140
169 1 107 123
170 1 107 115
171 1 107 155
172 1 108 116
173 1 108 124
174 1 108 156
175 1 109 143
176 1 109 125
177 1 109 183
178 1 109 157
179 1 109 117
180 1 110 184
181 1 110 158
182 1 110 144
183 1 110 118
184 1 110 126
185 1 111 119
186 1 111 159
187 1 111 127
188 1 112 120
189 1 112 128
190 1 112 160
191 1 113 186
192 1 113 153
193 1 113 145
194 1 113 121
195 1 113 130
196 1 114 122
197 1 114 154
198 1 114 146
199 1 115 123
200 1 115 132
201 1 115 155
202 1 115 188
203 1 115 147
204 1 116 124
205 1 116 156
206 1 116 148
207 1 117 157
208 1 117 125
209 1 117 134
210 1 117 190
211 1 117 149
212 1 118 158
213 1 118 150
214 1 118 126
215 1 119 127
216 1 119 136
217 1 119 192
218 1 119 151
219 1 119 159
220 1 120 152
221 1 120 128
222 1 120 160
223 1 121 153
224 1 122 154
225 1 123 155
226 1 124 156
227 1 125 157
228 1 125 161
229 1 126 162
230 1 126 158
231 1 127 159
232 1 127 163
233 1 128 164
234 1 128 160
235 1 129 137
236 1 129 185
237 1 130 145
238 1 130 138
239 1 130 186
240 1 131 139
241 1 131 187
242 1 132 147
243 1 132 188
244 1 132 140
245 1 133 141
246 1 133 189
247 1 134 149
248 1 134 142
249 1 134 190
250 1 135 143
251 1 135 191
252 1 136 151
253 1 136 192
254 1 136 144
255 1 137 177
256 1 138 178
257 1 139 179
258 1 140 180
259 1 141 181
260 1 142 182
261 1 143 183
262 1 144 184
263 1 145 177
264 1 145 186
265 1 146 178
266 1 147 188
267 1 147 179
268 1 148 180
269 1 149 190
270 1 149 181
271 1 150 182
272 1 151 192
273 1 151 183
274 1 152 184
275 1 157 170
276 1 159 172
277 1 161 185
278 1 161 169
279 1 162 186
280 1 162 170
281 1 163 171
282 1 163 187
283 1 164 172
284 1 164 188
285 1 165 189
286 1 165 173
287 1 166 190
288 1 166 174
289 1 167 175
290 1 167 191
291 1 168 176
292 1 168 192
293 1 169 185
294 1 170 186
295 1 171 187
296 1 172 188
297 1 173 189
298 1 174 190
299 1 175 191
300 1 176 192

