ITEM: TIMESTEP
0
ITEM: NUMBER OF ATOMS
192
ITEM: BOX BOUNDS pp pp pp
-7.2437509999999996e+00 1.9956250000000001e+01
-7.2437509999999996e+00 1.9956250000000001e+01
-7.2437509999999996e+00 1.9956250000000001e+01
ITEM: ATOMS id type xs ys zs
65 1 0.266314 0.266314 0.266314
69 1 0.515579 0.266314 0.266314
129 1 0.328631 0.328631 0.266314
185 1 0.390947 0.390947 0.266314
133 1 0.577895 0.328631 0.266314
189 1 0.640211 0.390947 0.266314
67 1 0.266314 0.515579 0.266314
71 1 0.515579 0.515579 0.266314
169 1 0.453263 0.453263 0.266314
173 1 0.702528 0.453263 0.266314
131 1 0.328631 0.577895 0.266314
187 1 0.390947 0.640211 0.266314
171 1 0.453263 0.702528 0.266314
135 1 0.577895 0.577895 0.266314
175 1 0.702528 0.702528 0.266314
191 1 0.640211 0.640211 0.266314
137 1 0.328631 0.266314 0.328631
177 1 0.390947 0.266314 0.390947
141 1 0.577895 0.266314 0.328631
181 1 0.640211 0.266314 0.390947
73 1 0.266314 0.328631 0.328631
121 1 0.266314 0.390947 0.390947
1 2 0.359789 0.359789 0.359789
9 2 0.422105 0.422105 0.422105
25 2 0.297472 0.422105 0.297472
41 2 0.422105 0.297472 0.297472
57 2 0.297472 0.297472 0.422105
29 2 0.546737 0.422105 0.297472
61 2 0.546737 0.297472 0.422105
77 1 0.515579 0.328631 0.328631
81 1 0.453263 0.328631 0.390947
125 1 0.515579 0.390947 0.390947
161 1 0.453263 0.390947 0.328631
5 2 0.609053 0.359789 0.359789
13 2 0.671369 0.422105 0.422105
45 2 0.671369 0.297472 0.297472
85 1 0.702528 0.328631 0.390947
165 1 0.702528 0.390947 0.328631
43 2 0.422105 0.546737 0.297472
59 2 0.297472 0.546737 0.422105
97 1 0.390947 0.453263 0.328631
105 1 0.328631 0.453263 0.390947
139 1 0.328631 0.515579 0.328631
179 1 0.390947 0.515579 0.390947
49 2 0.484421 0.484421 0.359789
63 2 0.546737 0.546737 0.422105
47 2 0.671369 0.546737 0.297472
101 1 0.640211 0.453263 0.328631
109 1 0.577895 0.453263 0.390947
143 1 0.577895 0.515579 0.328631
183 1 0.640211 0.515579 0.390947
53 2 0.733686 0.484421 0.359789
75 1 0.266314 0.577895 0.328631
123 1 0.266314 0.640211 0.390947
3 2 0.359789 0.609053 0.359789
11 2 0.422105 0.671369 0.422105
27 2 0.297472 0.671369 0.297472
99 1 0.390947 0.702528 0.328631
107 1 0.328631 0.702528 0.390947
31 2 0.546737 0.671369 0.297472
79 1 0.515579 0.577895 0.328631
83 1 0.453263 0.577895 0.390947
127 1 0.515579 0.640211 0.390947
163 1 0.453263 0.640211 0.328631
7 2 0.609053 0.609053 0.359789
15 2 0.671369 0.671369 0.422105
87 1 0.702528 0.577895 0.390947
103 1 0.640211 0.702528 0.328631
111 1 0.577895 0.702528 0.390947
167 1 0.702528 0.640211 0.328631
51 2 0.484421 0.733686 0.359789
55 2 0.733686 0.733686 0.359789
66 1 0.266314 0.266314 0.515579
70 1 0.515579 0.266314 0.515579
89 1 0.453263 0.266314 0.453263
93 1 0.702528 0.266314 0.453263
26 2 0.297472 0.422105 0.546737
42 2 0.422105 0.297472 0.546737
113 1 0.328631 0.390947 0.453263
130 1 0.328631 0.328631 0.515579
145 1 0.390947 0.328631 0.453263
186 1 0.390947 0.390947 0.515579
30 2 0.546737 0.422105 0.546737
33 2 0.484421 0.359789 0.484421
46 2 0.671369 0.297472 0.546737
117 1 0.577895 0.390947 0.453263
134 1 0.577895 0.328631 0.515579
149 1 0.640211 0.328631 0.453263
190 1 0.640211 0.390947 0.515579
37 2 0.733686 0.359789 0.484421
68 1 0.266314 0.515579 0.515579
153 1 0.266314 0.453263 0.453263
17 2 0.359789 0.484421 0.484421
44 2 0.422105 0.546737 0.546737
72 1 0.515579 0.515579 0.515579
91 1 0.453263 0.515579 0.453263
157 1 0.515579 0.453263 0.453263
170 1 0.453263 0.453263 0.515579
21 2 0.609053 0.484421 0.484421
48 2 0.671369 0.546737 0.546737
95 1 0.702528 0.515579 0.453263
174 1 0.702528 0.453263 0.515579
155 1 0.266314 0.702528 0.453263
28 2 0.297472 0.671369 0.546737
115 1 0.328631 0.640211 0.453263
132 1 0.328631 0.577895 0.515579
147 1 0.390947 0.577895 0.453263
188 1 0.390947 0.640211 0.515579
32 2 0.546737 0.671369 0.546737
35 2 0.484421 0.609053 0.484421
159 1 0.515579 0.702528 0.453263
172 1 0.453263 0.702528 0.515579
119 1 0.577895 0.640211 0.453263
136 1 0.577895 0.577895 0.515579
151 1 0.640211 0.577895 0.453263
176 1 0.702528 0.702528 0.515579
192 1 0.640211 0.640211 0.515579
39 2 0.733686 0.609053 0.484421
19 2 0.359789 0.733686 0.484421
23 2 0.609053 0.733686 0.484421
138 1 0.328631 0.266314 0.577895
178 1 0.390947 0.266314 0.640211
90 1 0.453263 0.266314 0.702528
94 1 0.702528 0.266314 0.702528
142 1 0.577895 0.266314 0.577895
182 1 0.640211 0.266314 0.640211
74 1 0.266314 0.328631 0.577895
122 1 0.266314 0.390947 0.640211
2 2 0.359789 0.359789 0.609053
10 2 0.422105 0.422105 0.671369
58 2 0.297472 0.297472 0.671369
114 1 0.328631 0.390947 0.702528
146 1 0.390947 0.328631 0.702528
62 2 0.546737 0.297472 0.671369
78 1 0.515579 0.328631 0.577895
82 1 0.453263 0.328631 0.640211
126 1 0.515579 0.390947 0.640211
162 1 0.453263 0.390947 0.577895
6 2 0.609053 0.359789 0.609053
14 2 0.671369 0.422105 0.671369
86 1 0.702528 0.328631 0.640211
118 1 0.577895 0.390947 0.702528
150 1 0.640211 0.328631 0.702528
166 1 0.702528 0.390947 0.577895
154 1 0.266314 0.453263 0.702528
60 2 0.297472 0.546737 0.671369
98 1 0.390947 0.453263 0.577895
106 1 0.328631 0.453263 0.640211
140 1 0.328631 0.515579 0.577895
180 1 0.390947 0.515579 0.640211
50 2 0.484421 0.484421 0.609053
64 2 0.546737 0.546737 0.671369
92 1 0.453263 0.515579 0.702528
158 1 0.515579 0.453263 0.702528
96 1 0.702528 0.515579 0.702528
102 1 0.640211 0.453263 0.577895
110 1 0.577895 0.453263 0.640211
144 1 0.577895 0.515579 0.577895
184 1 0.640211 0.515579 0.640211
54 2 0.733686 0.484421 0.609053
76 1 0.266314 0.577895 0.577895
124 1 0.266314 0.640211 0.640211
156 1 0.266314 0.702528 0.702528
4 2 0.359789 0.609053 0.609053
12 2 0.422105 0.671369 0.671369
100 1 0.390947 0.702528 0.577895
108 1 0.328631 0.702528 0.640211
116 1 0.328631 0.640211 0.702528
148 1 0.390947 0.577895 0.702528
80 1 0.515579 0.577895 0.577895
84 1 0.453263 0.577895 0.640211
128 1 0.515579 0.640211 0.640211
160 1 0.515579 0.702528 0.702528
164 1 0.453263 0.640211 0.577895
8 2 0.609053 0.609053 0.609053
16 2 0.671369 0.671369 0.671369
88 1 0.702528 0.577895 0.640211
104 1 0.640211 0.702528 0.577895
112 1 0.577895 0.702528 0.640211
120 1 0.577895 0.640211 0.702528
152 1 0.640211 0.577895 0.702528
168 1 0.702528 0.640211 0.577895
52 2 0.484421 0.733686 0.609053
56 2 0.733686 0.733686 0.609053
34 2 0.484421 0.359789 0.733686
38 2 0.733686 0.359789 0.733686
18 2 0.359789 0.484421 0.733686
22 2 0.609053 0.484421 0.733686
36 2 0.484421 0.609053 0.733686
40 2 0.733686 0.609053 0.733686
20 2 0.359789 0.733686 0.733686
24 2 0.609053 0.733686 0.733686
ITEM: TIMESTEP
100
ITEM: NUMBER OF ATOMS
192
ITEM: BOX BOUNDS pp pp pp
-7.2437509999999996e+00 1.9956250000000001e+01
-7.2437509999999996e+00 1.9956250000000001e+01
-7.2437509999999996e+00 1.9956250000000001e+01
ITEM: ATOMS id type xs ys zs
65 1 0.282194 0.342987 0.345759
69 1 0.520905 0.310554 0.312247
129 1 0.35895 0.35842 0.266702
185 1 0.384685 0.383222 0.270626
133 1 0.615692 0.355655 0.268322
189 1 0.628389 0.383772 0.276832
67 1 0.312768 0.520023 0.318014
71 1 0.497444 0.491483 0.254564
169 1 0.481627 0.476965 0.249017
173 1 0.734446 0.495052 0.26868
131 1 0.354439 0.610638 0.270101
187 1 0.384723 0.624889 0.275295
171 1 0.483001 0.721531 0.264513
135 1 0.55484 0.549686 0.302774
175 1 0.663934 0.668241 0.223594
191 1 0.628697 0.627457 0.259321
137 1 0.36237 0.271094 0.360737
177 1 0.379391 0.272209 0.379654
141 1 0.618226 0.268338 0.354675
181 1 0.629077 0.277084 0.381482
73 1 0.274305 0.361088 0.363337
121 1 0.275885 0.377656 0.378766
1 2 0.370231 0.365448 0.36373
9 2 0.429584 0.43053 0.434019
25 2 0.306112 0.426861 0.306319
41 2 0.42993 0.304984 0.306107
57 2 0.30549 0.305432 0.428143
29 2 0.533116 0.402726 0.274824
61 2 0.535195 0.26897 0.397251
77 1 0.499457 0.351497 0.351393
81 1 0.483709 0.351253 0.369235
125 1 0.502238 0.382215 0.36754
161 1 0.483448 0.369043 0.351771
5 2 0.589621 0.359453 0.361932
13 2 0.653793 0.424502 0.425041
45 2 0.684547 0.325465 0.322198
85 1 0.728246 0.377985 0.386163
165 1 0.728473 0.383677 0.380879
43 2 0.413429 0.533936 0.281347
59 2 0.270271 0.540561 0.402735
97 1 0.378312 0.472807 0.351019
105 1 0.343312 0.486239 0.370379
139 1 0.342861 0.502689 0.349847
179 1 0.397632 0.504099 0.373174
49 2 0.484425 0.470926 0.344072
63 2 0.539611 0.538444 0.40373
47 2 0.654725 0.534095 0.292454
101 1 0.635575 0.442628 0.326092
109 1 0.55854 0.440506 0.424632
143 1 0.564391 0.52412 0.313979
183 1 0.651867 0.533131 0.399893
53 2 0.722688 0.475743 0.357662
75 1 0.271257 0.621879 0.355288
123 1 0.281208 0.632248 0.384276
3 2 0.361814 0.58963 0.362426
11 2 0.42541 0.658303 0.423404
27 2 0.331182 0.684517 0.320659
99 1 0.389926 0.730579 0.374907
107 1 0.371725 0.72841 0.390964
31 2 0.534161 0.644052 0.276961
79 1 0.514361 0.561912 0.314133
83 1 0.44208 0.563681 0.424456
127 1 0.552703 0.660642 0.417636
163 1 0.444877 0.63493 0.322613
7 2 0.606446 0.610561 0.353627
15 2 0.659179 0.683976 0.41102
87 1 0.686415 0.564341 0.3832
103 1 0.595083 0.706066 0.33608
111 1 0.563163 0.677443 0.409117
167 1 0.70174 0.608737 0.35508
51 2 0.49451 0.712211 0.354774
55 2 0.683558 0.686325 0.304056
66 1 0.326183 0.328656 0.516477
70 1 0.506356 0.260558 0.489054
89 1 0.481242 0.25305 0.475513
93 1 0.733049 0.269287 0.492435
26 2 0.299328 0.424771 0.538113
42 2 0.420399 0.295177 0.533404
113 1 0.344226 0.390733 0.460731
130 1 0.34249 0.344689 0.504507
145 1 0.390581 0.343339 0.45858
186 1 0.397512 0.391754 0.512769
30 2 0.546425 0.417972 0.532537
33 2 0.495796 0.348585 0.462206
46 2 0.656097 0.291276 0.534486
117 1 0.558515 0.425529 0.440251
134 1 0.56523 0.320569 0.538251
149 1 0.631284 0.326818 0.448346
190 1 0.658262 0.426486 0.527756
37 2 0.720674 0.360412 0.480626
68 1 0.264755 0.505109 0.492934
153 1 0.249777 0.475874 0.471188
17 2 0.350245 0.496952 0.462638
44 2 0.42404 0.541253 0.53703
72 1 0.539213 0.546505 0.549447
91 1 0.447588 0.529982 0.447866
157 1 0.529648 0.446061 0.445098
170 1 0.445277 0.441096 0.530784
21 2 0.604508 0.504526 0.485879
48 2 0.684918 0.5349 0.548314
95 1 0.702515 0.507776 0.451368
174 1 0.674439 0.439146 0.524711
155 1 0.272362 0.724411 0.496891
28 2 0.2993 0.647064 0.536452
115 1 0.328186 0.628098 0.447267
132 1 0.328746 0.556307 0.544787
147 1 0.420716 0.564872 0.445533
188 1 0.424511 0.655596 0.533589
32 2 0.531086 0.666828 0.565323
35 2 0.503282 0.608802 0.4833
159 1 0.511046 0.700849 0.455143
172 1 0.437237 0.672951 0.531601
119 1 0.565848 0.657757 0.428067
136 1 0.560415 0.566822 0.550097
151 1 0.650043 0.552063 0.417996
176 1 0.698178 0.694062 0.494675
192 1 0.665508 0.652867 0.510619
39 2 0.718647 0.600441 0.456589
19 2 0.361385 0.719073 0.482801
23 2 0.596999 0.716751 0.490107
138 1 0.360993 0.272123 0.608917
178 1 0.38504 0.276259 0.625204
90 1 0.497223 0.268574 0.722963
94 1 0.664295 0.226046 0.706167
142 1 0.567742 0.283023 0.561387
182 1 0.629362 0.268015 0.622252
74 1 0.274796 0.358955 0.608934
122 1 0.281335 0.387957 0.6289
2 2 0.367252 0.364636 0.596777
10 2 0.423993 0.42255 0.671791
58 2 0.322425 0.321763 0.681143
114 1 0.348855 0.403406 0.723632
146 1 0.403197 0.349361 0.725068
62 2 0.539097 0.291033 0.645726
78 1 0.523517 0.325659 0.561075
82 1 0.445594 0.325646 0.65107
126 1 0.552711 0.41976 0.66513
162 1 0.457258 0.391298 0.572714
6 2 0.613626 0.368915 0.603054
14 2 0.674105 0.400862 0.696207
86 1 0.706072 0.348778 0.600004
118 1 0.580149 0.395831 0.690089
150 1 0.609234 0.332354 0.697337
166 1 0.706759 0.35739 0.59074
154 1 0.267063 0.494592 0.713424
60 2 0.290178 0.539697 0.638744
98 1 0.396861 0.455744 0.58169
106 1 0.323614 0.446789 0.637746
140 1 0.332574 0.520686 0.561304
180 1 0.430966 0.541019 0.661281
50 2 0.492306 0.479595 0.606596
64 2 0.531497 0.563813 0.662031
92 1 0.443365 0.525104 0.683005
158 1 0.509596 0.461443 0.701912
96 1 0.698239 0.490673 0.696243
102 1 0.656005 0.438595 0.545345
110 1 0.548808 0.417755 0.658385
144 1 0.569511 0.533905 0.57444
184 1 0.662521 0.515926 0.64456
54 2 0.720347 0.449004 0.607422
76 1 0.262065 0.566508 0.555935
124 1 0.267434 0.627739 0.623515
156 1 0.209628 0.70136 0.707178
4 2 0.378536 0.613648 0.612061
12 2 0.384095 0.702419 0.68902
100 1 0.364593 0.706587 0.582041
108 1 0.320791 0.694852 0.619525
116 1 0.354503 0.608221 0.726531
148 1 0.347062 0.595747 0.705914
80 1 0.531654 0.564501 0.566656
84 1 0.427471 0.540663 0.655543
128 1 0.503167 0.663076 0.658776
160 1 0.477882 0.704047 0.697667
164 1 0.43456 0.654986 0.546093
8 2 0.621515 0.60937 0.607799
16 2 0.66677 0.686667 0.689521
88 1 0.747501 0.547731 0.616103
104 1 0.612942 0.710389 0.593365
112 1 0.606952 0.71076 0.606516
120 1 0.597525 0.621295 0.704737
152 1 0.61552 0.581853 0.704795
168 1 0.725834 0.60311 0.600378
52 2 0.450086 0.724725 0.606551
56 2 0.701995 0.691063 0.585574
34 2 0.502006 0.360469 0.719698
38 2 0.697738 0.299638 0.674025
18 2 0.357592 0.501221 0.711103
22 2 0.600794 0.482563 0.710028
36 2 0.445056 0.613996 0.714574
40 2 0.704133 0.584123 0.688854
20 2 0.286607 0.666188 0.701385
24 2 0.569175 0.715981 0.689695
ITEM: TIMESTEP
200
ITEM: NUMBER OF ATOMS
192
ITEM: BOX BOUNDS pp pp pp
-7.2437509999999996e+00 1.9956250000000001e+01
-7.2437509999999996e+00 1.9956250000000001e+01
-7.2437509999999996e+00 1.9956250000000001e+01
ITEM: ATOMS id type xs ys zs
65 1 0.281334 0.345274 0.34765
69 1 0.521097 0.310255 0.311335
129 1 0.359766 0.357962 0.267076
185 1 0.384815 0.383267 0.270735
133 1 0.615319 0.355382 0.268814
189 1 0.627773 0.383862 0.277251
67 1 0.312874 0.520111 0.317744
71 1 0.497373 0.490925 0.254367
169 1 0.481237 0.476257 0.248749
173 1 0.734115 0.495016 0.269191
131 1 0.354308 0.610364 0.270539
187 1 0.385149 0.624677 0.275573
171 1 0.482502 0.720538 0.264758
135 1 0.554176 0.549112 0.30416
175 1 0.66245 0.667022 0.223615
191 1 0.628478 0.6268 0.259326
137 1 0.362942 0.270975 0.360921
177 1 0.379281 0.272096 0.379358
141 1 0.618616 0.268988 0.354685
181 1 0.628742 0.277255 0.381806
73 1 0.274733 0.361025 0.363427
121 1 0.276134 0.377073 0.378292
1 2 0.370378 0.365622 0.363711
9 2 0.430325 0.430692 0.434253
25 2 0.306654 0.426796 0.306417
41 2 0.429992 0.305249 0.305735
57 2 0.30587 0.305569 0.428396
29 2 0.532321 0.400882 0.273971
61 2 0.534305 0.26866 0.396814
77 1 0.49875 0.352378 0.352289
81 1 0.484795 0.352172 0.368271
125 1 0.501611 0.380831 0.365596
161 1 0.483769 0.368917 0.352406
5 2 0.589235 0.359727 0.361473
13 2 0.653074 0.424955 0.425303
45 2 0.68422 0.326041 0.322978
85 1 0.72845 0.379658 0.385915
165 1 0.728667 0.383267 0.382488
43 2 0.413401 0.533253 0.281409
59 2 0.269707 0.540638 0.402081
97 1 0.378761 0.472167 0.351902
105 1 0.343429 0.488686 0.368327
139 1 0.342292 0.502612 0.350984
179 1 0.397195 0.503001 0.373217
49 2 0.48388 0.469957 0.343472
63 2 0.539634 0.538167 0.403813
47 2 0.654372 0.533497 0.293213
101 1 0.63594 0.442357 0.32647
109 1 0.558018 0.440729 0.425158
143 1 0.563278 0.526548 0.313218
183 1 0.651551 0.532741 0.399818
53 2 0.722101 0.476002 0.357228
75 1 0.271614 0.622152 0.355182
123 1 0.281502 0.632173 0.384405
3 2 0.362301 0.589303 0.362616
11 2 0.425203 0.65778 0.424076
27 2 0.332201 0.68457 0.321425
99 1 0.390289 0.73072 0.37638
107 1 0.373642 0.728919 0.390846
31 2 0.534069 0.642903 0.277122
79 1 0.514274 0.561403 0.313946
83 1 0.442277 0.563168 0.425718
127 1 0.553805 0.661639 0.41816
163 1 0.444552 0.634522 0.3229
7 2 0.606288 0.610554 0.354039
15 2 0.658292 0.684868 0.411272
87 1 0.685895 0.563253 0.38366
103 1 0.594912 0.705932 0.33542
111 1 0.562947 0.676012 0.411116
167 1 0.701565 0.608846 0.355316
51 2 0.494585 0.711239 0.355071
55 2 0.683207 0.685971 0.303568
66 1 0.326924 0.329571 0.516034
70 1 0.506541 0.260586 0.487813
89 1 0.481934 0.253298 0.475237
93 1 0.73281 0.26975 0.49212
26 2 0.299865 0.425345 0.537392
42 2 0.421567 0.295496 0.533496
113 1 0.344676 0.391226 0.460541
130 1 0.342662 0.344645 0.504695
145 1 0.391037 0.343734 0.458699
186 1 0.39793 0.391455 0.512428
30 2 0.546289 0.417739 0.532088
33 2 0.496424 0.348329 0.461634
46 2 0.655746 0.291598 0.534885
117 1 0.557946 0.426232 0.44012
134 1 0.565154 0.320522 0.5386
149 1 0.630975 0.327546 0.448514
190 1 0.658282 0.42755 0.52808
37 2 0.71977 0.359671 0.480498
68 1 0.264547 0.50555 0.492015
153 1 0.250011 0.476012 0.470128
17 2 0.350239 0.497322 0.461822
44 2 0.424435 0.540982 0.5367
72 1 0.539377 0.547353 0.550182
91 1 0.447163 0.530457 0.447409
157 1 0.53025 0.44593 0.444672
170 1 0.445929 0.44124 0.531052
21 2 0.604078 0.505335 0.48629
48 2 0.685805 0.534229 0.548248
95 1 0.702231 0.507868 0.451172
174 1 0.672816 0.438758 0.525349
155 1 0.272325 0.723872 0.496812
28 2 0.299266 0.646345 0.536345
115 1 0.328421 0.627592 0.44742
132 1 0.329045 0.556014 0.544834
147 1 0.422461 0.564125 0.445314
188 1 0.425187 0.655653 0.533083
32 2 0.530943 0.665548 0.566917
35 2 0.503757 0.609199 0.48276
159 1 0.511224 0.700961 0.454785
172 1 0.436712 0.671621 0.531664
119 1 0.565801 0.659123 0.427612
136 1 0.560008 0.56697 0.550965
151 1 0.649977 0.551028 0.417201
176 1 0.697856 0.693818 0.494636
192 1 0.665206 0.652462 0.511086
39 2 0.717876 0.600922 0.456092
19 2 0.361277 0.718908 0.482882
23 2 0.59687 0.716656 0.491574
138 1 0.360515 0.272401 0.609009
178 1 0.38511 0.276637 0.624484
90 1 0.496534 0.268738 0.722334
94 1 0.664199 0.226576 0.705384
142 1 0.567039 0.284663 0.56077
182 1 0.629288 0.267925 0.621875
74 1 0.275123 0.359591 0.608854
122 1 0.281545 0.388249 0.628445
2 2 0.367917 0.364778 0.596989
10 2 0.424134 0.422311 0.672118
58 2 0.323595 0.321845 0.681434
114 1 0.349221 0.403738 0.724207
146 1 0.403365 0.349617 0.725355
62 2 0.539557 0.291184 0.645387
78 1 0.523873 0.325634 0.560965
82 1 0.445598 0.325708 0.651203
126 1 0.553347 0.419526 0.665428
162 1 0.457818 0.391511 0.573254
6 2 0.613287 0.369495 0.602686
14 2 0.673111 0.40123 0.696869
86 1 0.706261 0.348972 0.598871
118 1 0.579753 0.396635 0.689647
150 1 0.609337 0.332221 0.697146
166 1 0.706833 0.35618 0.591364
154 1 0.266677 0.494511 0.712565
60 2 0.290581 0.540498 0.637408
98 1 0.397164 0.456265 0.582321
106 1 0.323337 0.446707 0.637559
140 1 0.332722 0.520969 0.56071
180 1 0.431002 0.540813 0.660965
50 2 0.492623 0.480411 0.60678
64 2 0.531761 0.564829 0.661661
92 1 0.442963 0.525607 0.682326
158 1 0.509476 0.461572 0.702178
96 1 0.697996 0.490598 0.696043
102 1 0.656261 0.438492 0.544361
110 1 0.548687 0.417686 0.658823
144 1 0.569294 0.534864 0.574541
184 1 0.662605 0.515772 0.644951
54 2 0.72142 0.448966 0.607631
76 1 0.261175 0.566037 0.555782
124 1 0.2669 0.627484 0.623094
156 1 0.209606 0.701272 0.708072
4 2 0.378921 0.613831 0.611839
12 2 0.383575 0.70244 0.689434
100 1 0.363138 0.706814 0.582227
108 1 0.320708 0.694545 0.619353
116 1 0.354059 0.608612 0.727894
148 1 0.346806 0.59558 0.705897
80 1 0.532016 0.564382 0.566495
84 1 0.42749 0.540436 0.655195
128 1 0.501478 0.663839 0.659493
160 1 0.477813 0.70347 0.69663
164 1 0.434692 0.654936 0.545767
8 2 0.622468 0.608987 0.60757
16 2 0.667031 0.68679 0.689486
88 1 0.747785 0.546182 0.616381
104 1 0.612925 0.709923 0.594764
112 1 0.607659 0.710225 0.605993
120 1 0.598485 0.620749 0.704312
152 1 0.615578 0.582206 0.704563
168 1 0.726437 0.60285 0.599927
52 2 0.449073 0.724181 0.606154
56 2 0.702192 0.690916 0.58555
34 2 0.502228 0.36045 0.719524
38 2 0.697628 0.299257 0.674018
18 2 0.357488 0.501091 0.711174
22 2 0.601573 0.484038 0.710753
36 2 0.444732 0.613937 0.714801
40 2 0.704771 0.583979 0.688468
20 2 0.286129 0.665916 0.700906
24 2 0.569223 0.71558 0.688688
ITEM: TIMESTEP
300
ITEM: NUMBER OF ATOMS
192
ITEM: BOX BOUNDS pp pp pp
-7.2437509999999996e+00 1.9956250000000001e+01
-7.2437509999999996e+00 1.9956250000000001e+01
-7.2437509999999996e+00 1.9956250000000001e+01
ITEM: ATOMS id type xs ys zs
65 1 0.280982 0.34623 0.348488
69 1 0.521149 0.310022 0.310954
129 1 0.359868 0.357706 0.267055
185 1 0.384889 0.383293 0.270742
133 1 0.615095 0.355501 0.268875
189 1 0.627497 0.383918 0.277367
67 1 0.31291 0.520132 0.317663
71 1 0.497343 0.490637 0.254277
169 1 0.4811 0.475916 0.248636
173 1 0.733981 0.495015 0.269321
131 1 0.353786 0.610165 0.270716
187 1 0.385356 0.624569 0.275699
171 1 0.482288 0.720052 0.264896
135 1 0.553914 0.548859 0.304711
175 1 0.661779 0.666476 0.223659
191 1 0.628398 0.626507 0.259331
137 1 0.363278 0.270981 0.36122
177 1 0.379264 0.272066 0.379207
141 1 0.61878 0.269303 0.355451
181 1 0.628555 0.277371 0.381944
73 1 0.274916 0.361036 0.363473
121 1 0.276241 0.376804 0.378072
1 2 0.370507 0.365624 0.363784
9 2 0.430591 0.43076 0.434366
25 2 0.306817 0.426831 0.306454
41 2 0.430093 0.305321 0.305681
57 2 0.306056 0.305613 0.428481
29 2 0.531733 0.400218 0.273545
61 2 0.534103 0.268586 0.3964
77 1 0.498464 0.352846 0.352504
81 1 0.485049 0.352644 0.368016
125 1 0.501289 0.380115 0.364955
161 1 0.484142 0.368902 0.352455
5 2 0.589027 0.359822 0.361463
13 2 0.652869 0.425064 0.42547
45 2 0.684244 0.326263 0.323327
85 1 0.728498 0.380288 0.385846
165 1 0.728672 0.383226 0.38305
43 2 0.413306 0.532837 0.281423
59 2 0.269494 0.540701 0.401803
97 1 0.378993 0.471917 0.352297
105 1 0.343368 0.489751 0.367454
139 1 0.342155 0.50254 0.351458
179 1 0.397022 0.502563 0.373199
49 2 0.484081 0.469627 0.343349
63 2 0.539496 0.537945 0.4038
47 2 0.653978 0.532921 0.293288
101 1 0.636104 0.442205 0.326634
109 1 0.557839 0.440762 0.425366
143 1 0.562698 0.527689 0.312922
183 1 0.6514 0.532581 0.399802
53 2 0.722221 0.476099 0.357456
75 1 0.271693 0.622147 0.354997
123 1 0.281659 0.632169 0.384462
3 2 0.362456 0.58915 0.362671
11 2 0.425158 0.657603 0.42439
27 2 0.332669 0.684601 0.32172
99 1 0.390411 0.730743 0.376987
107 1 0.374517 0.729172 0.390865
31 2 0.534505 0.642553 0.277118
79 1 0.514235 0.561154 0.313917
83 1 0.442374 0.562956 0.426245
127 1 0.55429 0.662167 0.418432
163 1 0.4444 0.634353 0.323012
7 2 0.606305 0.610568 0.354308
15 2 0.657932 0.685274 0.411312
87 1 0.685569 0.562816 0.38388
103 1 0.594818 0.70587 0.335141
111 1 0.562777 0.675424 0.411948
167 1 0.701498 0.608927 0.355426
51 2 0.494608 0.71086 0.355217
55 2 0.683038 0.685843 0.30341
66 1 0.327281 0.329981 0.515884
70 1 0.506596 0.260529 0.487349
89 1 0.482153 0.253326 0.474967
93 1 0.732638 0.269882 0.492018
26 2 0.300114 0.425531 0.53725
42 2 0.421873 0.295647 0.533305
113 1 0.344897 0.391428 0.460436
130 1 0.342768 0.344632 0.504814
145 1 0.391248 0.343888 0.458767
186 1 0.398095 0.391291 0.512328
30 2 0.546212 0.417754 0.531968
33 2 0.496635 0.348306 0.461329
46 2 0.655542 0.291478 0.534007
117 1 0.557686 0.426586 0.440029
134 1 0.565189 0.320518 0.538755
149 1 0.63082 0.327838 0.448632
190 1 0.658447 0.428001 0.528186
37 2 0.719435 0.359608 0.480405
68 1 0.264531 0.505665 0.491649
153 1 0.250084 0.476144 0.469859
17 2 0.35025 0.497492 0.461373
44 2 0.424527 0.540889 0.536494
72 1 0.539434 0.547729 0.550487
91 1 0.446996 0.530661 0.447171
157 1 0.530511 0.445865 0.444501
170 1 0.44621 0.44132 0.531178
21 2 0.603962 0.505617 0.486437
48 2 0.686149 0.533935 0.548191
95 1 0.702101 0.507936 0.451052
174 1 0.672032 0.438431 0.525676
155 1 0.272306 0.723624 0.496772
28 2 0.299214 0.646094 0.536278
115 1 0.328512 0.627373 0.44748
132 1 0.329214 0.555829 0.544758
147 1 0.423152 0.563755 0.445246
188 1 0.42544 0.655475 0.533152
32 2 0.530927 0.665061 0.567546
35 2 0.504098 0.609386 0.482704
159 1 0.511323 0.701013 0.454588
172 1 0.436836 0.671227 0.531719
119 1 0.56576 0.6597 0.427466
136 1 0.55982 0.567041 0.551312
151 1 0.649965 0.550611 0.416928
176 1 0.697724 0.693751 0.494656
192 1 0.665048 0.652278 0.511288
39 2 0.717614 0.60118 0.455849
19 2 0.361333 0.71893 0.483051
23 2 0.596725 0.716523 0.492173
138 1 0.360504 0.272528 0.609001
178 1 0.385145 0.276728 0.624234
90 1 0.496256 0.268795 0.722046
94 1 0.664091 0.22667 0.705096
142 1 0.566642 0.285406 0.560513
182 1 0.629249 0.267851 0.621868
74 1 0.275354 0.359704 0.608766
122 1 0.281704 0.388309 0.628336
2 2 0.368049 0.364964 0.596911
10 2 0.424253 0.422377 0.672211
58 2 0.323933 0.321992 0.681454
114 1 0.34937 0.403844 0.724455
146 1 0.403493 0.349716 0.725561
62 2 0.539665 0.291255 0.645432
78 1 0.524016 0.325589 0.560894
82 1 0.445585 0.325697 0.651262
126 1 0.553767 0.41955 0.665653
162 1 0.458059 0.391624 0.573534
6 2 0.613265 0.369868 0.602603
14 2 0.67277 0.40132 0.696954
86 1 0.706234 0.34911 0.598686
118 1 0.579547 0.397143 0.689507
150 1 0.609313 0.332123 0.697062
166 1 0.706896 0.355718 0.591555
154 1 0.266599 0.494537 0.712071
60 2 0.290736 0.540639 0.637097
98 1 0.397288 0.456485 0.582593
106 1 0.323225 0.4467 0.637468
140 1 0.332842 0.521097 0.560392
180 1 0.431011 0.540784 0.660891
50 2 0.492824 0.480546 0.60691
64 2 0.531759 0.565251 0.66149
92 1 0.442786 0.525832 0.682014
158 1 0.509541 0.461678 0.702288
96 1 0.697968 0.490637 0.695993
102 1 0.656543 0.438385 0.543873
110 1 0.548412 0.417705 0.659064
144 1 0.569136 0.535322 0.574632
184 1 0.662733 0.515662 0.645023
54 2 0.721797 0.448716 0.607509
76 1 0.26073 0.565894 0.555595
124 1 0.266616 0.627472 0.622904
156 1 0.209575 0.70125 0.70848
4 2 0.379177 0.61392 0.611753
12 2 0.383405 0.702421 0.689626
100 1 0.362516 0.706912 0.582331
108 1 0.320681 0.694424 0.619239
116 1 0.353891 0.608809 0.728449
148 1 0.346698 0.595518 0.70586
80 1 0.532212 0.564278 0.566311
84 1 0.42747 0.540375 0.655097
128 1 0.500732 0.664209 0.659862
160 1 0.477779 0.703199 0.69618
164 1 0.434428 0.654791 0.545316
8 2 0.622948 0.608782 0.607468
16 2 0.667155 0.68681 0.689459
88 1 0.747994 0.545515 0.616516
104 1 0.612701 0.709737 0.595222
112 1 0.608165 0.709929 0.605866
120 1 0.598937 0.620504 0.70418
152 1 0.615697 0.582466 0.704438
168 1 0.726714 0.602754 0.599724
52 2 0.448609 0.723973 0.605944
56 2 0.702314 0.690896 0.585552
34 2 0.502341 0.360451 0.719527
38 2 0.697645 0.299422 0.673871
18 2 0.357389 0.501077 0.711039
22 2 0.601386 0.48444 0.711277
36 2 0.444503 0.613815 0.714908
40 2 0.70497 0.583968 0.688338
20 2 0.285969 0.665761 0.700688
24 2 0.569221 0.715384 0.688305
ITEM: TIMESTEP
400
ITEM: NUMBER OF ATOMS
192
ITEM: BOX BOUNDS pp pp pp
-7.2437509999999996e+00 1.9956250000000001e+01
-7.2437509999999996e+00 1.9956250000000001e+01
-7.2437509999999996e+00 1.9956250000000001e+01
ITEM: ATOMS id type xs ys zs
65 1 0.280925 0.346392 0.348633
69 1 0.521159 0.309975 0.310887
129 1 0.359878 0.357592 0.267061
185 1 0.384903 0.383298 0.270742
133 1 0.615028 0.355141 0.268883
189 1 0.627446 0.383927 0.277387
67 1 0.312916 0.520136 0.317651
71 1 0.497338 0.490585 0.25426
169 1 0.481077 0.475857 0.248614
173 1 0.733958 0.495016 0.269345
131 1 0.353746 0.610139 0.270748
187 1 0.385394 0.624548 0.275721
171 1 0.48225 0.719967 0.264919
135 1 0.553873 0.54882 0.304801
175 1 0.661659 0.66638 0.22367
191 1 0.628384 0.626455 0.259334
137 1 0.363258 0.270949 0.36106
177 1 0.379261 0.272061 0.379179
141 1 0.618759 0.269326 0.355339
181 1 0.628521 0.277393 0.381968
73 1 0.274948 0.361039 0.363481
121 1 0.27626 0.376756 0.378032
1 2 0.370527 0.365631 0.363791
9 2 0.430635 0.430777 0.434383
25 2 0.306847 0.426834 0.306462
41 2 0.430107 0.305326 0.305677
57 2 0.306092 0.305623 0.428494
29 2 0.531647 0.400103 0.273474
61 2 0.534058 0.268569 0.396327
77 1 0.498434 0.352943 0.352524
81 1 0.48511 0.35271 0.367949
125 1 0.501241 0.379998 0.36482
161 1 0.484142 0.368888 0.352529
5 2 0.588992 0.359849 0.361448
13 2 0.652836 0.425085 0.425498
45 2 0.684236 0.326302 0.323385
85 1 0.72851 0.380384 0.385839
165 1 0.728669 0.383237 0.383132
43 2 0.41332 0.532866 0.281434
59 2 0.269457 0.540714 0.401759
97 1 0.379039 0.471881 0.352356
105 1 0.343347 0.489921 0.367312
139 1 0.342139 0.502526 0.351536
179 1 0.396999 0.50249 0.373193
49 2 0.484092 0.469538 0.34331
63 2 0.539469 0.537906 0.403797
47 2 0.65401 0.533274 0.293366
101 1 0.63614 0.442175 0.326667
109 1 0.557799 0.440778 0.425401
143 1 0.56259 0.527895 0.312872
183 1 0.651379 0.532574 0.399784
53 2 0.722167 0.476037 0.357435
75 1 0.271729 0.62217 0.354993
123 1 0.281687 0.632169 0.384472
3 2 0.362484 0.58913 0.362682
11 2 0.425149 0.657567 0.424444
27 2 0.33275 0.684606 0.321771
99 1 0.390439 0.730757 0.377099
107 1 0.374665 0.729204 0.390861
31 2 0.534534 0.642479 0.27712
79 1 0.51423 0.561113 0.313915
83 1 0.442399 0.56292 0.42634
127 1 0.554373 0.662244 0.418479
163 1 0.444373 0.634327 0.323031
7 2 0.606303 0.610568 0.354351
15 2 0.657874 0.685349 0.411317
87 1 0.68551 0.562741 0.383925
103 1 0.594799 0.70586 0.335093
111 1 0.562753 0.67533 0.41209
167 1 0.701488 0.608944 0.355445
51 2 0.494613 0.710794 0.355243
55 2 0.683002 0.685801 0.303398
66 1 0.327348 0.330053 0.515872
70 1 0.506596 0.260516 0.487296
89 1 0.482224 0.253349 0.474955
93 1 0.732619 0.269894 0.491993
26 2 0.300154 0.425567 0.537225
42 2 0.421966 0.295695 0.533466
113 1 0.344934 0.391463 0.460419
130 1 0.342782 0.344624 0.504821
145 1 0.391283 0.343916 0.458778
186 1 0.398124 0.39126 0.512308
30 2 0.546199 0.41776 0.531951
33 2 0.49668 0.348303 0.461283
46 2 0.65553 0.291492 0.534167
117 1 0.557653 0.426646 0.440013
134 1 0.565185 0.320519 0.53878
149 1 0.630787 0.327888 0.44864
190 1 0.658502 0.428082 0.528206
37 2 0.719392 0.359613 0.480397
68 1 0.26453 0.505685 0.491586
153 1 0.250097 0.476164 0.469811
17 2 0.35025 0.49752 0.461296
44 2 0.424544 0.540872 0.536457
72 1 0.539466 0.547774 0.550589
91 1 0.446966 0.530697 0.44713
157 1 0.530554 0.445846 0.444472
170 1 0.446256 0.441332 0.5312
21 2 0.603944 0.505663 0.486458
48 2 0.686209 0.533885 0.548186
95 1 0.70208 0.507952 0.45103
174 1 0.671875 0.438362 0.525726
155 1 0.272302 0.723581 0.496764
28 2 0.299205 0.646049 0.536268
115 1 0.328527 0.627335 0.447489
132 1 0.329247 0.555796 0.544741
147 1 0.423266 0.563695 0.445229
188 1 0.425481 0.655441 0.533156
32 2 0.530913 0.664955 0.567679
35 2 0.504156 0.609409 0.482692
159 1 0.511341 0.701023 0.454548
172 1 0.436763 0.671176 0.531732
119 1 0.565743 0.659814 0.427447
136 1 0.559792 0.56705 0.551381
151 1 0.649965 0.550545 0.416887
176 1 0.6977 0.693743 0.494659
192 1 0.665019 0.652245 0.511323
39 2 0.717576 0.601238 0.455798
19 2 0.361321 0.718911 0.483049
23 2 0.596699 0.716497 0.492276
138 1 0.360547 0.272577 0.608906
178 1 0.385113 0.276722 0.624294
90 1 0.496209 0.268802 0.721996
94 1 0.664072 0.22669 0.705043
142 1 0.566585 0.285544 0.560463
182 1 0.62925 0.26785 0.621851