ITEM: TIMESTEP
0
ITEM: NUMBER OF ATOMS
192
ITEM: BOX BOUNDS pp pp pp
-7.2437509999999996e+00 1.9956250000000001e+01
-7.2437509999999996e+00 1.9956250000000001e+01
-7.2437509999999996e+00 1.9956250000000001e+01
ITEM: ATOMS id type xs ys zs
129 1 0.35993 0.357307 0.267051
185 1 0.38498 0.383323 0.270743
29 2 0.531164 0.399517 0.27309
133 1 0.615036 0.355159 0.26913
189 1 0.62718 0.383972 0.277482
43 2 0.413284 0.532611 0.281459
71 1 0.497311 0.490315 0.254168
169 1 0.480962 0.47556 0.248505
173 1 0.733827 0.49502 0.269457
131 1 0.353689 0.610033 0.270911
187 1 0.385588 0.624442 0.27583
31 2 0.534535 0.642071 0.277127
175 1 0.661047 0.665889 0.22374
191 1 0.628319 0.626194 0.259353
171 1 0.482051 0.71953 0.265035
137 1 0.363456 0.270912 0.361109
177 1 0.379254 0.272035 0.379039
61 2 0.533864 0.268495 0.395976
141 1 0.618711 0.269477 0.355106
181 1 0.628347 0.277511 0.382089
65 1 0.280644 0.34721 0.34937
73 1 0.275111 0.361061 0.363524
121 1 0.276361 0.37651 0.377824
1 2 0.370617 0.365657 0.363841
25 2 0.306997 0.426852 0.306498
57 2 0.306267 0.30567 0.428563
69 1 0.52121 0.309729 0.310544
41 2 0.430181 0.305357 0.305651
77 1 0.498233 0.353389 0.352706
81 1 0.485334 0.353097 0.367676
125 1 0.500967 0.379353 0.364247
161 1 0.484348 0.368866 0.352642
5 2 0.588819 0.359975 0.361396
13 2 0.652656 0.425179 0.425642
45 2 0.684203 0.326499 0.323683
85 1 0.728545 0.38085 0.385831
165 1 0.728678 0.383291 0.383509
59 2 0.269267 0.540785 0.401531
67 1 0.312941 0.520154 0.317592
97 1 0.379285 0.471702 0.35263
105 1 0.343256 0.490753 0.36662
139 1 0.342036 0.502449 0.351931
179 1 0.396891 0.502124 0.373163
135 1 0.553674 0.548616 0.305249
49 2 0.484259 0.469199 0.343184
63 2 0.539319 0.537694 0.403782
109 1 0.557626 0.440842 0.425587
143 1 0.562034 0.528945 0.312624
79 1 0.514204 0.560911 0.313911
83 1 0.442499 0.562743 0.426806
47 2 0.653759 0.53317 0.293491
101 1 0.636315 0.442015 0.326821
183 1 0.651251 0.532487 0.399739
87 1 0.685198 0.562346 0.384144
151 1 0.649974 0.550224 0.416691
53 2 0.721974 0.475814 0.357383
75 1 0.271861 0.622229 0.354894
123 1 0.281836 0.632179 0.384524
3 2 0.362627 0.589021 0.362736
11 2 0.425113 0.657384 0.424721
27 2 0.333165 0.684637 0.322026
127 1 0.554775 0.662686 0.418734
163 1 0.444237 0.634195 0.32313
111 1 0.562621 0.674872 0.412804
51 2 0.494638 0.710465 0.355375
119 1 0.565661 0.660344 0.427331
7 2 0.606279 0.610576 0.354597
15 2 0.657583 0.685741 0.411345
103 1 0.594701 0.705804 0.334852
167 1 0.701441 0.609041 0.355547
55 2 0.682829 0.685649 0.3033
99 1 0.390585 0.730803 0.377665
107 1 0.375421 0.729387 0.390846
70 1 0.506624 0.260456 0.486927
89 1 0.482462 0.253408 0.474809
93 1 0.732511 0.269959 0.491869
66 1 0.327675 0.33041 0.515761
26 2 0.300354 0.425748 0.537103
42 2 0.42226 0.295832 0.533473
113 1 0.345126 0.391637 0.460339
130 1 0.342877 0.344605 0.504897
145 1 0.391464 0.34405 0.458844
186 1 0.398276 0.391103 0.512207
30 2 0.546136 0.417785 0.531862
33 2 0.496901 0.348284 0.461057
117 1 0.557455 0.426946 0.439936
134 1 0.565169 0.32052 0.538901
142 1 0.566283 0.28625 0.560208
78 1 0.52417 0.325537 0.560827
46 2 0.655435 0.291505 0.534595
149 1 0.630618 0.32813 0.448683
190 1 0.658695 0.428549 0.528235
37 2 0.719179 0.359631 0.480375
68 1 0.26452 0.505784 0.491274
153 1 0.250164 0.476263 0.469571
76 1 0.260252 0.565771 0.555403
17 2 0.350251 0.497657 0.460913
44 2 0.424619 0.540767 0.536274
132 1 0.329414 0.555631 0.544653
147 1 0.423852 0.563383 0.445167
140 1 0.332955 0.521239 0.560053
9 2 0.430856 0.430855 0.43447
72 1 0.539665 0.548082 0.550881
91 1 0.446812 0.530882 0.446914
157 1 0.530771 0.445757 0.444315
170 1 0.446489 0.441387 0.531314
136 1 0.559701 0.567028 0.551795
80 1 0.532541 0.564058 0.566199
21 2 0.60385 0.5059 0.486562
48 2 0.686498 0.53363 0.548175
95 1 0.701969 0.508039 0.450908
174 1 0.671098 0.438049 0.525958
102 1 0.657141 0.438015 0.542662
28 2 0.299159 0.645825 0.53622
115 1 0.328603 0.627144 0.447537
188 1 0.425729 0.655302 0.533159
32 2 0.530859 0.664453 0.568355
35 2 0.504438 0.609531 0.48263
159 1 0.511437 0.701067 0.454338
172 1 0.436753 0.670826 0.531766
164 1 0.434424 0.65465 0.544855
176 1 0.697575 0.693705 0.494677
192 1 0.664876 0.652074 0.511505
39 2 0.717368 0.601441 0.455577
155 1 0.27228 0.723362 0.49672
19 2 0.361316 0.718868 0.48312
23 2 0.596558 0.71635 0.492796
138 1 0.360617 0.272733 0.608766
178 1 0.385098 0.276774 0.624215
94 1 0.663973 0.226792 0.704775
182 1 0.629257 0.267838 0.62178
74 1 0.275594 0.359807 0.608679
122 1 0.281875 0.388375 0.628239
2 2 0.368229 0.365145 0.596849
10 2 0.424381 0.422423 0.672315
58 2 0.324264 0.322163 0.681453
62 2 0.539769 0.291311 0.64529
82 1 0.445563 0.325693 0.651327
126 1 0.554315 0.419604 0.665922
162 1 0.458304 0.391752 0.573859
110 1 0.5485 0.417822 0.659181
6 2 0.613281 0.369987 0.602383
14 2 0.672353 0.401512 0.697074
86 1 0.706231 0.349157 0.59843
118 1 0.579287 0.397746 0.689333
150 1 0.609272 0.332017 0.69697
166 1 0.706866 0.355304 0.591752
38 2 0.697631 0.299594 0.67374
154 1 0.266516 0.49456 0.711541
60 2 0.290889 0.540783 0.636783
98 1 0.397409 0.456725 0.582871
106 1 0.323104 0.4467 0.637364
84 1 0.427459 0.540306 0.655003
18 2 0.357306 0.50105 0.710889
180 1 0.431023 0.540761 0.660822
50 2 0.493029 0.480706 0.607054
64 2 0.531729 0.565761 0.661293
92 1 0.442579 0.526088 0.681676
158 1 0.509586 0.461788 0.702395
144 1 0.568962 0.535812 0.574728
96 1 0.697898 0.490675 0.695921
184 1 0.662828 0.515454 0.645115
22 2 0.600774 0.485326 0.712436
54 2 0.721926 0.448341 0.607392
88 1 0.748231 0.544808 0.616662
124 1 0.266304 0.627457 0.622702
156 1 0.209554 0.701227 0.708921
4 2 0.379323 0.614034 0.61169
12 2 0.383245 0.702391 0.689833
100 1 0.361857 0.70701 0.582447
108 1 0.320677 0.694304 0.619108
148 1 0.346582 0.595454 0.705825
20 2 0.285797 0.66561 0.700444
128 1 0.499921 0.664623 0.6603
160 1 0.477737 0.702888 0.695709
8 2 0.623479 0.608555 0.607348
16 2 0.667286 0.686828 0.68942
104 1 0.612655 0.709495 0.595715
112 1 0.608516 0.709645 0.605677
120 1 0.599457 0.620235 0.704015
152 1 0.615786 0.582763 0.704301
56 2 0.70245 0.69089 0.585556
40 2 0.705172 0.583918 0.688185
168 1 0.727011 0.602665 0.599514
52 2 0.4481 0.723779 0.605732
24 2 0.569215 0.715146 0.687931
90 1 0.495978 0.268842 0.72174
114 1 0.349538 0.403949 0.724702
146 1 0.403646 0.349838 0.725789
34 2 0.502467 0.360456 0.719534
116 1 0.353712 0.609036 0.728993
36 2 0.444265 0.61369 0.71506
ITEM: TIMESTEP
100
ITEM: NUMBER OF ATOMS
192
ITEM: BOX BOUNDS pp pp pp
-7.2437509999999996e+00 1.9956250000000001e+01
-7.2437509999999996e+00 1.9956250000000001e+01
-7.2437509999999996e+00 1.9956250000000001e+01
ITEM: ATOMS id type xs ys zs
129 1 0.359324 0.354029 0.267359
185 1 0.386191 0.383954 0.271717
29 2 0.529522 0.396786 0.27131
133 1 0.612269 0.352037 0.267113
189 1 0.623741 0.388867 0.279979
43 2 0.41366 0.530372 0.281599
71 1 0.506502 0.495876 0.2485
169 1 0.471543 0.46256 0.221898
173 1 0.730457 0.494558 0.272672
131 1 0.354025 0.605788 0.273758
187 1 0.389448 0.625528 0.278175
31 2 0.533463 0.645599 0.27843
175 1 0.66252 0.656484 0.224923
191 1 0.627601 0.622152 0.259543
171 1 0.478301 0.7143 0.266256
137 1 0.364917 0.26947 0.361435
177 1 0.379193 0.271448 0.377102
61 2 0.532693 0.268677 0.393432
141 1 0.615853 0.266683 0.354123
181 1 0.625428 0.27946 0.387243
65 1 0.275806 0.360022 0.361792
73 1 0.276833 0.361628 0.364465
121 1 0.277233 0.371733 0.373775
1 2 0.368875 0.36478 0.363387
25 2 0.304105 0.426968 0.30731
57 2 0.307385 0.305954 0.429551
69 1 0.522369 0.306721 0.304978
41 2 0.43032 0.303351 0.306704
77 1 0.496017 0.357906 0.358522
81 1 0.490062 0.357472 0.364097
125 1 0.490036 0.375587 0.362541
161 1 0.484993 0.36828 0.357973
5 2 0.587734 0.361077 0.362255
13 2 0.644641 0.43199 0.433875
45 2 0.674836 0.307643 0.304386
85 1 0.696499 0.37737 0.384223
165 1 0.802064 0.437655 0.437166
59 2 0.268253 0.541884 0.399375
67 1 0.314196 0.520214 0.318883
97 1 0.377362 0.472168 0.353599
105 1 0.343648 0.494348 0.364368
139 1 0.343039 0.500924 0.355831
179 1 0.395662 0.491976 0.371207
135 1 0.554663 0.553626 0.304991
49 2 0.485729 0.465699 0.340321
63 2 0.538624 0.53546 0.403481
109 1 0.548885 0.441195 0.434024
143 1 0.557191 0.529399 0.313828
79 1 0.508877 0.561551 0.313761
83 1 0.44382 0.546791 0.440555
47 2 0.64904 0.531124 0.294212
101 1 0.64007 0.438494 0.328833
183 1 0.655276 0.532194 0.398303
87 1 0.680618 0.551274 0.390319
151 1 0.655081 0.53812 0.409902
53 2 0.719017 0.474853 0.361398
75 1 0.274391 0.623927 0.354056
123 1 0.284318 0.633342 0.385897
3 2 0.3649 0.58667 0.363184
11 2 0.425173 0.655361 0.42506
27 2 0.336553 0.68499 0.324305
127 1 0.561609 0.669502 0.422434
163 1 0.444204 0.632626 0.324023
111 1 0.559434 0.671393 0.422421
51 2 0.498357 0.708547 0.356802
119 1 0.564335 0.67019 0.422095
7 2 0.608785 0.612434 0.356976
15 2 0.65512 0.686954 0.411847
103 1 0.593444 0.705578 0.329496
167 1 0.701985 0.610783 0.354821
55 2 0.681297 0.686112 0.301658
99 1 0.39071 0.731859 0.384054
107 1 0.376342 0.729476 0.395998
70 1 0.506462 0.257113 0.482924
89 1 0.483015 0.253014 0.471933
93 1 0.73085 0.271364 0.488364
66 1 0.338072 0.340018 0.511545
26 2 0.301445 0.427224 0.536903
42 2 0.424405 0.296413 0.533221
113 1 0.348723 0.393109 0.460393
130 1 0.348074 0.348393 0.502819
145 1 0.39259 0.346986 0.460207
186 1 0.402098 0.389496 0.509252
30 2 0.54618 0.417038 0.531213
33 2 0.499241 0.346365 0.460588
117 1 0.548695 0.43571 0.439629
134 1 0.555944 0.320002 0.54404
142 1 0.568796 0.301388 0.557848
78 1 0.539147 0.321856 0.55429
46 2 0.653905 0.290909 0.532812
149 1 0.630206 0.332392 0.448904
190 1 0.659866 0.432657 0.532108
37 2 0.71854 0.362483 0.479478
68 1 0.261173 0.505084 0.486812
153 1 0.250164 0.477555 0.466814
76 1 0.255047 0.563709 0.550328
17 2 0.348795 0.50063 0.460841
44 2 0.42526 0.544121 0.536281
132 1 0.329155 0.552002 0.545397
147 1 0.435141 0.55703 0.442743
140 1 0.32993 0.539014 0.552301
9 2 0.437368 0.433125 0.430007
72 1 0.547036 0.560656 0.557464
91 1 0.444339 0.535294 0.443805
157 1 0.534031 0.443921 0.442508
170 1 0.448698 0.442895 0.53058
136 1 0.546293 0.564751 0.564463
80 1 0.547465 0.565508 0.561747
21 2 0.600262 0.509284 0.491313
48 2 0.688092 0.532134 0.547209
95 1 0.703571 0.508049 0.45051
174 1 0.665755 0.437381 0.53084
102 1 0.658697 0.438007 0.541443
28 2 0.298621 0.640809 0.5363
115 1 0.327778 0.625969 0.445547
188 1 0.426592 0.65621 0.532941
32 2 0.528863 0.660551 0.573713
35 2 0.509071 0.609159 0.479334
159 1 0.512622 0.700841 0.449998
172 1 0.431228 0.667481 0.531104
164 1 0.432363 0.663406 0.533887
176 1 0.695401 0.693908 0.495003
192 1 0.663521 0.650612 0.513678
39 2 0.714701 0.601215 0.454085
155 1 0.273433 0.718103 0.495916
19 2 0.363891 0.7153 0.486054
23 2 0.595678 0.716026 0.497252
138 1 0.360814 0.274812 0.606982
178 1 0.384714 0.277574 0.622646
94 1 0.661727 0.228114 0.69883
182 1 0.630548 0.267042 0.621576
74 1 0.278254 0.360236 0.607662
122 1 0.284224 0.388863 0.627556
2 2 0.370428 0.366998 0.596119
10 2 0.425268 0.422346 0.675507
58 2 0.326025 0.323011 0.681179
62 2 0.540161 0.290651 0.643755
82 1 0.444424 0.325587 0.653668
126 1 0.561016 0.417338 0.669298
162 1 0.46135 0.392361 0.578292
110 1 0.551458 0.419184 0.666835
6 2 0.614429 0.370613 0.601534
14 2 0.668666 0.402762 0.697028
86 1 0.706024 0.341995 0.600624
118 1 0.576562 0.403642 0.681896
150 1 0.608975 0.330137 0.696134
166 1 0.70721 0.357114 0.584188
38 2 0.697982 0.300583 0.673831
154 1 0.265901 0.496844 0.707635
60 2 0.291445 0.541555 0.634576
98 1 0.399911 0.459252 0.587024
106 1 0.321277 0.44553 0.636054
84 1 0.434486 0.546523 0.652171
18 2 0.357867 0.495879 0.709014
180 1 0.426627 0.539303 0.664297
50 2 0.4963 0.479517 0.605789
64 2 0.530462 0.567798 0.660242
92 1 0.44562 0.522641 0.682048
158 1 0.508415 0.464124 0.70356
144 1 0.566844 0.542545 0.571909
96 1 0.696833 0.49098 0.695804
184 1 0.664344 0.513917 0.646228
22 2 0.600567 0.487472 0.711113
54 2 0.722598 0.445682 0.607621
88 1 0.751437 0.534165 0.618041
124 1 0.261165 0.627477 0.621759
156 1 0.209708 0.700958 0.71586
4 2 0.379462 0.616015 0.611348
12 2 0.382557 0.703329 0.691432
100 1 0.353405 0.70754 0.586416
108 1 0.320127 0.693938 0.617266
148 1 0.345298 0.593075 0.70512
20 2 0.283791 0.665964 0.697911
128 1 0.491247 0.670893 0.667004
160 1 0.477698 0.697553 0.689828
8 2 0.626966 0.606359 0.606863
16 2 0.667989 0.687183 0.68881
104 1 0.618912 0.703014 0.589636
112 1 0.604772 0.710562 0.61423
120 1 0.603312 0.620544 0.701331
152 1 0.616901 0.588558 0.70318
56 2 0.703114 0.690953 0.5859
40 2 0.70643 0.583131 0.686608
168 1 0.729388 0.602035 0.597685
52 2 0.443511 0.722468 0.604165
24 2 0.568903 0.713249 0.686247
90 1 0.489144 0.26991 0.716689
114 1 0.351007 0.403439 0.727093
146 1 0.404139 0.350731 0.728185
34 2 0.503864 0.361071 0.719545
116 1 0.353519 0.626408 0.735956
36 2 0.44095 0.613335 0.717051
ITEM: TIMESTEP
200
ITEM: NUMBER OF ATOMS
192
ITEM: BOX BOUNDS pp pp pp
-7.2437509999999996e+00 1.9956250000000001e+01
-7.2437509999999996e+00 1.9956250000000001e+01
-7.2437509999999996e+00 1.9956250000000001e+01
ITEM: ATOMS id type xs ys zs
129 1 0.357469 0.348307 0.272921
185 1 0.390509 0.385105 0.274962
29 2 0.52065 0.390414 0.262979
133 1 0.604831 0.353003 0.252323
189 1 0.613382 0.387198 0.275435
43 2 0.413242 0.524109 0.276311
71 1 0.50218 0.482389 0.248607
169 1 0.478409 0.461975 0.228026
173 1 0.725108 0.490274 0.280782
131 1 0.35284 0.600585 0.277008
187 1 0.398761 0.62056 0.281716
31 2 0.53312 0.639395 0.279349
175 1 0.665921 0.629784 0.233165
191 1 0.626001 0.617672 0.264112
171 1 0.468928 0.706593 0.273613
137 1 0.363718 0.268386 0.361849
177 1 0.376272 0.267713 0.376847
61 2 0.524063 0.268314 0.384643
141 1 0.610472 0.254297 0.353625
181 1 0.617977 0.276963 0.381526
65 1 0.268287 0.361765 0.368962
73 1 0.273437 0.363315 0.368785
121 1 0.270875 0.349451 0.356971
1 2 0.370364 0.366306 0.364635
25 2 0.304911 0.425424 0.309119
57 2 0.313721 0.311238 0.431662
69 1 0.528908 0.302204 0.294664
41 2 0.431864 0.300081 0.308874
77 1 0.503133 0.370092 0.361547
81 1 0.483212 0.365817 0.366447
125 1 0.501639 0.375552 0.362166
161 1 0.482444 0.3733 0.356647
5 2 0.593272 0.358943 0.357728
13 2 0.640417 0.430061 0.431819
45 2 0.654644 0.295196 0.293128
85 1 0.710974 0.381741 0.383918
165 1 0.816485 0.470373 0.480617
59 2 0.268189 0.5448 0.3971
67 1 0.311945 0.518044 0.315335
97 1 0.37621 0.471576 0.351616
105 1 0.339088 0.491924 0.365801
139 1 0.338935 0.499517 0.355309
179 1 0.38576 0.485029 0.362729
135 1 0.550088 0.550347 0.310468
49 2 0.488233 0.465687 0.326401
63 2 0.537566 0.527482 0.401232
109 1 0.546835 0.446942 0.434254
143 1 0.55346 0.539281 0.309613
79 1 0.503109 0.561899 0.321143
83 1 0.450681 0.555768 0.438791
47 2 0.645713 0.527817 0.300352
101 1 0.639815 0.433949 0.331527
183 1 0.651895 0.544262 0.412181
87 1 0.650981 0.536828 0.395198
151 1 0.652749 0.530859 0.415787
53 2 0.715128 0.470035 0.368543
75 1 0.280084 0.624072 0.349959
123 1 0.293784 0.634013 0.388962
3 2 0.370776 0.580936 0.363675
11 2 0.428711 0.648271 0.426792
27 2 0.349041 0.6829 0.330445
127 1 0.560693 0.674385 0.42355
163 1 0.444412 0.636526 0.32856
111 1 0.566756 0.66703 0.426669
51 2 0.498831 0.708428 0.360031
119 1 0.559019 0.683532 0.423522
7 2 0.606729 0.610556 0.360526
15 2 0.654373 0.696753 0.411252
103 1 0.59276 0.708247 0.32186
167 1 0.707024 0.621336 0.358476
55 2 0.677445 0.684919 0.298781
99 1 0.392986 0.729325 0.396489
107 1 0.383491 0.726797 0.403493
70 1 0.503111 0.254237 0.475506
89 1 0.480311 0.25043 0.466638
93 1 0.725414 0.280292 0.478555
66 1 0.346643 0.346144 0.512355
26 2 0.306219 0.435265 0.534349
42 2 0.430961 0.29784 0.530459
113 1 0.354359 0.396828 0.459513
130 1 0.356242 0.353959 0.503827
145 1 0.396353 0.353451 0.462804
186 1 0.418898 0.383874 0.506426
30 2 0.546024 0.417942 0.529018
33 2 0.500921 0.344457 0.457716
117 1 0.524018 0.445794 0.449549
134 1 0.564468 0.330103 0.544991
142 1 0.559242 0.324137 0.551897
78 1 0.575488 0.292648 0.560488
46 2 0.649009 0.291973 0.529804
149 1 0.625999 0.340733 0.45066
190 1 0.645706 0.440527 0.553818
37 2 0.713213 0.369675 0.480679
68 1 0.259847 0.500009 0.480652
153 1 0.259225 0.475046 0.460785
76 1 0.250962 0.55595 0.548803
17 2 0.355737 0.505315 0.457299
44 2 0.433509 0.541446 0.537211
132 1 0.336704 0.556732 0.54328
147 1 0.434088 0.561304 0.446888
140 1 0.307976 0.555954 0.544451
9 2 0.438578 0.43762 0.430783
72 1 0.553371 0.570134 0.568622
91 1 0.453694 0.522337 0.446408
157 1 0.528664 0.44859 0.437397
170 1 0.450938 0.442846 0.534984
136 1 0.539141 0.563536 0.565212
80 1 0.55287 0.571348 0.574483
21 2 0.592953 0.516951 0.496381
48 2 0.700225 0.526938 0.545768
95 1 0.703862 0.50598 0.452051
174 1 0.680172 0.440379 0.518152
102 1 0.65566 0.442254 0.542837
28 2 0.294566 0.642728 0.536153
115 1 0.328209 0.617854 0.446179
188 1 0.413955 0.646307 0.527078
32 2 0.530383 0.662518 0.589288
35 2 0.517994 0.606727 0.482872
159 1 0.517876 0.693416 0.449481
172 1 0.431405 0.667576 0.527134
164 1 0.446472 0.650459 0.531322
176 1 0.689775 0.694348 0.497279
192 1 0.659704 0.644422 0.518292
39 2 0.706244 0.599878 0.449512
155 1 0.270579 0.711204 0.488942
19 2 0.360051 0.7155 0.487897
23 2 0.589861 0.714836 0.501979
138 1 0.360578 0.280747 0.600088
178 1 0.382461 0.279064 0.616171
94 1 0.649625 0.23206 0.684167
182 1 0.633471 0.267932 0.621154
74 1 0.283034 0.359411 0.6006
122 1 0.289362 0.393909 0.626668
2 2 0.376316 0.373871 0.592756
10 2 0.432313 0.419276 0.676728
58 2 0.333268 0.325728 0.678385
62 2 0.540129 0.291091 0.637477
82 1 0.443654 0.326428 0.658593
126 1 0.571912 0.4167 0.678169
162 1 0.473638 0.38893 0.592119
110 1 0.572016 0.420532 0.67226
6 2 0.618343 0.374638 0.603456
14 2 0.655897 0.404969 0.700055
86 1 0.708849 0.339065 0.587951
118 1 0.565348 0.419954 0.666417
150 1 0.604069 0.323458 0.69712
166 1 0.709777 0.347384 0.579226
38 2 0.697284 0.3045 0.674126
154 1 0.264094 0.497394 0.700701
60 2 0.293362 0.540861 0.629774
98 1 0.397778 0.468796 0.597577
106 1 0.315341 0.445765 0.631244
84 1 0.430317 0.541168 0.653567
18 2 0.356003 0.494879 0.702115
180 1 0.425682 0.543758 0.656894
50 2 0.504189 0.482477 0.610007
64 2 0.529559 0.578157 0.665654
92 1 0.447136 0.523191 0.679322
158 1 0.510478 0.468527 0.704581
144 1 0.551622 0.556941 0.577268
96 1 0.696042 0.48939 0.696496
184 1 0.667667 0.511092 0.643539
22 2 0.597472 0.500756 0.715614
54 2 0.720184 0.43733 0.609558
88 1 0.755907 0.524151 0.624762
124 1 0.248459 0.623107 0.620795
156 1 0.213365 0.70119 0.731369
4 2 0.383361 0.616879 0.610495
12 2 0.381211 0.706465 0.694784
100 1 0.335551 0.7048 0.601115
108 1 0.321502 0.696555 0.614196
148 1 0.337394 0.591577 0.701309
20 2 0.282054 0.66865 0.691921
128 1 0.476029 0.678551 0.671852
160 1 0.472826 0.686684 0.677079
8 2 0.634927 0.603579 0.604355
16 2 0.669898 0.687151 0.68619
104 1 0.614875 0.712551 0.596933
112 1 0.620503 0.700729 0.604458
120 1 0.610919 0.615877 0.69987
152 1 0.61606 0.598973 0.701692
56 2 0.708288 0.688775 0.585882
40 2 0.709826 0.580997 0.683116
168 1 0.737004 0.601122 0.593259
52 2 0.431954 0.723278 0.599737
24 2 0.564363 0.702819 0.689751
90 1 0.479541 0.273578 0.703176
114 1 0.356826 0.402021 0.730563
146 1 0.407708 0.350143 0.733725
34 2 0.512175 0.36011 0.719272
116 1 0.351012 0.647327 0.756889
36 2 0.433227 0.610756 0.718274
ITEM: TIMESTEP
300
ITEM: NUMBER OF ATOMS
192
ITEM: BOX BOUNDS pp pp pp
-7.2437509999999996e+00 1.9956250000000001e+01
-7.2437509999999996e+00 1.9956250000000001e+01
-7.2437509999999996e+00 1.9956250000000001e+01
ITEM: ATOMS id type xs ys zs
129 1 0.359724 0.341617 0.271942
185 1 0.402302 0.387803 0.273246
29 2 0.510663 0.378517 0.262733
133 1 0.598008 0.358278 0.239176
189 1 0.602936 0.372443 0.259661
43 2 0.407088 0.518933 0.268638
71 1 0.487068 0.46916 0.239443
169 1 0.470382 0.458412 0.224924
173 1 0.728939 0.48335 0.280505
131 1 0.348781 0.595968 0.272912
187 1 0.417985 0.613873 0.281395
31 2 0.528183 0.636647 0.283491
175 1 0.666344 0.594404 0.265111
191 1 0.62351 0.611288 0.263534
171 1 0.457614 0.697909 0.277344
137 1 0.367551 0.270365 0.36288
177 1 0.379071 0.268641 0.37476
61 2 0.511214 0.265882 0.375367
141 1 0.594529 0.246115 0.354873
181 1 0.599585 0.259778 0.366025
65 1 0.277748 0.363537 0.369429
73 1 0.273736 0.364386 0.370741
121 1 0.28259 0.349124 0.355444
1 2 0.374113 0.36195 0.363084
25 2 0.307165 0.419316 0.303648
57 2 0.317063 0.311872 0.433546
69 1 0.549274 0.285041 0.280591
41 2 0.440566 0.302194 0.307215
77 1 0.496783 0.370492 0.36234
81 1 0.482877 0.371708 0.366353
125 1 0.501817 0.386786 0.363025
161 1 0.482079 0.376774 0.360358
5 2 0.584817 0.354995 0.353734
13 2 0.637842 0.426126 0.424869
45 2 0.63533 0.292346 0.2872
85 1 0.714402 0.382582 0.38745
165 1 0.781654 0.490614 0.513693
59 2 0.270226 0.548504 0.396174
67 1 0.306133 0.514193 0.315718
97 1 0.379189 0.470063 0.346832
105 1 0.332206 0.475378 0.378917
139 1 0.334077 0.498155 0.346386
179 1 0.389404 0.479524 0.355107
135 1 0.553967 0.546677 0.307406
49 2 0.484599 0.469055 0.327779
63 2 0.540607 0.5333 0.403376
109 1 0.550859 0.441015 0.42899
143 1 0.55351 0.544111 0.313569
79 1 0.485226 0.564942 0.331182
83 1 0.453534 0.552999 0.439175
47 2 0.646227 0.52742 0.297331
101 1 0.637575 0.435813 0.324665
183 1 0.633521 0.542072 0.425855
87 1 0.635313 0.534011 0.40381
151 1 0.634981 0.538071 0.417887
53 2 0.712525 0.483661 0.369934
75 1 0.294301 0.623081 0.341629
123 1 0.307386 0.637292 0.396067
3 2 0.376979 0.577101 0.362297
11 2 0.431386 0.654862 0.436031
27 2 0.364282 0.681215 0.330174
127 1 0.562872 0.672795 0.42847
163 1 0.443006 0.646835 0.325232
111 1 0.558069 0.68204 0.422213
51 2 0.499103 0.711713 0.362157
119 1 0.561454 0.674867 0.425622
7 2 0.60514 0.614768 0.3622
15 2 0.649501 0.702009 0.408782
103 1 0.585586 0.705553 0.321731
167 1 0.710258 0.628298 0.364377
55 2 0.67272 0.679656 0.298132
99 1 0.403222 0.736428 0.396909
107 1 0.387879 0.733522 0.405828
70 1 0.494875 0.255552 0.465396
89 1 0.482605 0.254661 0.46232
93 1 0.723856 0.277039 0.460823
66 1 0.351904 0.351979 0.512951
26 2 0.30859 0.439108 0.536282
42 2 0.434973 0.294244 0.532173
113 1 0.354555 0.395965 0.4648
130 1 0.3627 0.362946 0.500276
145 1 0.396865 0.354991 0.466522
186 1 0.447026 0.386196 0.511156
30 2 0.546251 0.413998 0.535417
33 2 0.510061 0.346918 0.452536
117 1 0.544081 0.452575 0.456395
134 1 0.573116 0.322824 0.533358
142 1 0.551231 0.320678 0.555384
78 1 0.561508 0.291176 0.54568
46 2 0.657606 0.290578 0.525763
149 1 0.610649 0.338633 0.454961
190 1 0.656833 0.439452 0.527325
37 2 0.714195 0.369342 0.4833
68 1 0.262411 0.499805 0.47401
153 1 0.26954 0.4766 0.454125
76 1 0.256774 0.565815 0.545701
17 2 0.35854 0.5075 0.459047
44 2 0.435762 0.542234 0.544458
132 1 0.331348 0.560555 0.542167
147 1 0.440157 0.561857 0.451841
140 1 0.30395 0.533576 0.530293
9 2 0.433322 0.434903 0.429633
72 1 0.551302 0.572089 0.57378
91 1 0.453397 0.533711 0.450504
157 1 0.523818 0.442149 0.427778
170 1 0.452336 0.448337 0.544507
136 1 0.54751 0.573243 0.575305
80 1 0.546772 0.574875 0.576589
21 2 0.596533 0.513489 0.504867
48 2 0.714899 0.528771 0.545047
95 1 0.692497 0.501132 0.459491
174 1 0.68279 0.433697 0.532612
102 1 0.654019 0.453634 0.541043
28 2 0.291792 0.642892 0.538232
115 1 0.332001 0.604095 0.44994
188 1 0.414309 0.652919 0.530507
32 2 0.526056 0.670014 0.583445
35 2 0.522056 0.606684 0.485735
159 1 0.52526 0.692232 0.448886
172 1 0.435426 0.659492 0.532008
164 1 0.433226 0.642426 0.532734
176 1 0.679597 0.688509 0.497112
192 1 0.66007 0.645776 0.518798
39 2 0.697276 0.600862 0.45025
155 1 0.267635 0.709981 0.478169
19 2 0.35811 0.71214 0.489214
23 2 0.592462 0.712042 0.510093
138 1 0.360833 0.290681 0.58773
178 1 0.373085 0.281659 0.599951
94 1 0.629629 0.252061 0.664445
182 1 0.628173 0.270409 0.613916
74 1 0.293995 0.360266 0.586449
122 1 0.296728 0.409769 0.624708
2 2 0.387274 0.381586 0.58741
10 2 0.440537 0.422235 0.68073
58 2 0.346161 0.331912 0.671561
62 2 0.538224 0.290228 0.636875
82 1 0.445882 0.327229 0.660402
126 1 0.563161 0.438225 0.676293
162 1 0.494632 0.372283 0.609311
110 1 0.561737 0.432289 0.679185
6 2 0.618239 0.372001 0.607264
14 2 0.655781 0.411348 0.715841
86 1 0.714095 0.334921 0.587934
118 1 0.56119 0.430706 0.669216
150 1 0.606106 0.322015 0.701712
166 1 0.715349 0.342506 0.580801
38 2 0.690679 0.313965 0.669712
154 1 0.265363 0.494124 0.697197
60 2 0.291735 0.539963 0.625678
98 1 0.382358 0.476001 0.600759
106 1 0.317857 0.445243 0.629511
84 1 0.434454 0.543611 0.662913
18 2 0.359511 0.493271 0.696322
180 1 0.431222 0.538712 0.652689
50 2 0.50839 0.487746 0.616003
64 2 0.525732 0.584306 0.669751
92 1 0.444458 0.532295 0.679889
158 1 0.515754 0.466333 0.714516
144 1 0.560676 0.557756 0.586646
96 1 0.695629 0.493294 0.701978
184 1 0.662455 0.511829 0.644105
22 2 0.600508 0.507493 0.720184
54 2 0.714192 0.433631 0.616044
88 1 0.75585 0.51299 0.627291
124 1 0.247058 0.62074 0.620448
156 1 0.226017 0.700569 0.739236
4 2 0.378392 0.612113 0.610902
12 2 0.383146 0.710688 0.693077
100 1 0.333939 0.704168 0.604469
108 1 0.319022 0.696201 0.618199
148 1 0.330283 0.589896 0.702676
20 2 0.283272 0.668923 0.687476
128 1 0.471098 0.68015 0.6707
160 1 0.467697 0.683046 0.673565
8 2 0.636797 0.596567 0.60296
16 2 0.677063 0.683765 0.684084
104 1 0.603794 0.726623 0.609209
112 1 0.616462 0.702098 0.611741
120 1 0.616604 0.610103 0.706421
152 1 0.630281 0.601052 0.708758
56 2 0.708778 0.686491 0.583506
40 2 0.71225 0.580147 0.68258
168 1 0.745616 0.600988 0.595139
52 2 0.418372 0.718633 0.591313
24 2 0.566682 0.681288 0.687995
90 1 0.472051 0.280314 0.69711
114 1 0.36355 0.406613 0.729036
146 1 0.419467 0.350389 0.731207
34 2 0.519254 0.361032 0.71692
116 1 0.342945 0.653319 0.756325
36 2 0.422629 0.614857 0.721664
ITEM: TIMESTEP
400
ITEM: NUMBER OF ATOMS
192
ITEM: BOX BOUNDS pp pp pp
-7.2437509999999996e+00 1.9956250000000001e+01
-7.2437509999999996e+00 1.9956250000000001e+01
-7.2437509999999996e+00 1.9956250000000001e+01
ITEM: ATOMS id type xs ys zs
129 1 0.362964 0.335932 0.267322
185 1 0.406497 0.398799 0.270494
29 2 0.502212 0.380045 0.264311
133 1 0.581489 0.345024 0.241834
189 1 0.590835 0.365824 0.260671
43 2 0.398458 0.516185 0.267342
71 1 0.472499 0.461806 0.231558
169 1 0.457217 0.449048 0.2231
173 1 0.723162 0.484587 0.287251
131 1 0.343543 0.602624 0.279505
187 1 0.433573 0.611589 0.278587
31 2 0.524306 0.636915 0.289081
175 1 0.67234 0.601101 0.261776
191 1 0.616847 0.611605 0.266932
171 1 0.44751 0.687624 0.288678
137 1 0.379014 0.267044 0.360509
177 1 0.393331 0.268972 0.371583
61 2 0.498646 0.262608 0.374702
141 1 0.589327 0.251019 0.342465
181 1 0.593452 0.26822 0.3604
65 1 0.285063 0.362008 0.368293
73 1 0.287691 0.360465 0.365249
121 1 0.283416 0.361195 0.369184
1 2 0.378856 0.363791 0.362648
25 2 0.309377 0.417669 0.30054
57 2 0.321415 0.310776 0.434416
69 1 0.525386 0.277698 0.284291
41 2 0.438537 0.298746 0.293254
77 1 0.486342 0.371853 0.35925
81 1 0.481785 0.370869 0.373695
125 1 0.484644 0.383598 0.359204
161 1 0.482333 0.376512 0.358694
5 2 0.576106 0.355372 0.350958
13 2 0.639245 0.425699 0.427386
45 2 0.628485 0.283254 0.27709
85 1 0.715666 0.400687 0.389491
165 1 0.789489 0.481435 0.512745
59 2 0.279995 0.550482 0.391731
67 1 0.316633 0.512119 0.310803
97 1 0.38483 0.466044 0.348561
105 1 0.325188 0.475175 0.37416
139 1 0.339067 0.499596 0.339418
179 1 0.39843 0.483129 0.358874
135 1 0.557621 0.544658 0.313811
49 2 0.485857 0.467319 0.324482
63 2 0.537589 0.527593 0.406978
109 1 0.547486 0.439862 0.440754
143 1 0.557346 0.539101 0.315044
79 1 0.468198 0.570405 0.329574
83 1 0.452772 0.556314 0.445013
47 2 0.642429 0.517532 0.292648
101 1 0.64674 0.429875 0.332971
183 1 0.635379 0.540782 0.414886
87 1 0.635657 0.539399 0.400281
151 1 0.635416 0.528067 0.42292
53 2 0.707939 0.491986 0.375259
75 1 0.307353 0.622419 0.336795
123 1 0.330759 0.63979 0.411565
3 2 0.381448 0.573961 0.362432
11 2 0.427813 0.653023 0.428354
27 2 0.369741 0.686663 0.328032
127 1 0.555209 0.680961 0.427114
163 1 0.438701 0.637115 0.325984
111 1 0.555846 0.679554 0.432424
51 2 0.497415 0.716584 0.362358
119 1 0.561277 0.680152 0.433055
7 2 0.605936 0.614676 0.361241
15 2 0.648638 0.70115 0.409674
103 1 0.586277 0.709666 0.325798
167 1 0.712398 0.635328 0.368247
55 2 0.673353 0.685163 0.30125
99 1 0.408797 0.738462 0.394655
107 1 0.386654 0.734201 0.406053
70 1 0.499974 0.245186 0.464289
89 1 0.459556 0.257549 0.453892
93 1 0.711294 0.282951 0.458102
66 1 0.349614 0.354743 0.512854
26 2 0.306891 0.439506 0.532436
42 2 0.448631 0.303229 0.530988
113 1 0.364518 0.388538 0.470954
130 1 0.359332 0.364641 0.501691
145 1 0.400791 0.356762 0.46583
186 1 0.458506 0.396956 0.516983
30 2 0.548642 0.415387 0.534661
33 2 0.519025 0.340791 0.452272
117 1 0.527463 0.446555 0.460564
134 1 0.567487 0.318074 0.539216
142 1 0.567751 0.320296 0.55583
78 1 0.555719 0.300887 0.5435
46 2 0.649989 0.289557 0.523291
149 1 0.616461 0.343719 0.457438
190 1 0.652244 0.426511 0.54537
37 2 0.715594 0.367334 0.479522
68 1 0.262846 0.506446 0.475879
153 1 0.269745 0.472617 0.448549
76 1 0.245175 0.55408 0.539072
17 2 0.354335 0.506427 0.460084
44 2 0.430579 0.544192 0.542553
132 1 0.338228 0.561903 0.549424
147 1 0.439621 0.555968 0.450728
140 1 0.285025 0.541957 0.526352
9 2 0.445759 0.436484 0.431188
72 1 0.552803 0.571856 0.57519
91 1 0.45238 0.529633 0.453817
157 1 0.540475 0.433906 0.409291
170 1 0.458676 0.450887 0.535758
136 1 0.536626 0.567092 0.571897
80 1 0.552624 0.570459 0.5732
21 2 0.600369 0.511126 0.510015
48 2 0.701879 0.527071 0.556625
95 1 0.677922 0.509847 0.461299
174 1 0.676834 0.429856 0.531131
102 1 0.649456 0.44472 0.553449
28 2 0.294874 0.633969 0.534482
115 1 0.339692 0.608808 0.450258
188 1 0.419885 0.645822 0.527823
32 2 0.517141 0.661901 0.584861
35 2 0.518404 0.610238 0.486206
159 1 0.536198 0.689539 0.441214
172 1 0.431912 0.658989 0.527697
164 1 0.429886 0.640542 0.543516
176 1 0.68379 0.67735 0.497995
192 1 0.660954 0.648342 0.520353
39 2 0.691786 0.600399 0.451176
155 1 0.268725 0.698871 0.478636
19 2 0.361295 0.709969 0.489872
23 2 0.595634 0.713178 0.510474
138 1 0.36971 0.296969 0.583313