ITEM: TIMESTEP
0
ITEM: NUMBER OF ATOMS
16
ITEM: BOX BOUNDS pp pp pp
-3.8475000000000001e+00 8.4525000000000006e+00
-3.8475000000000001e+00 8.4525000000000006e+00
-3.8475000000000001e+00 8.4525000000000006e+00
ITEM: ATOMS id type xs ys zs
2 1 0.328396 0.328396 0.551495
5 1 0.551495 0.328396 0.328396
6 1 0.554115 0.303828 0.554115
3 1 0.328396 0.551495 0.328396
4 1 0.303828 0.554115 0.554115
1 1 0.335576 0.335576 0.335576
7 1 0.554115 0.554115 0.303828
8 1 0.56435 0.56435 0.56435
9 2 0.445045 0.445045 0.445045
10 2 0.434323 0.434323 0.689759
13 2 0.689759 0.434323 0.434323
14 2 0.679932 0.433749 0.679932
11 2 0.434323 0.689759 0.434323
12 2 0.433749 0.679932 0.679932
15 2 0.679932 0.679932 0.433749
16 2 0.682667 0.682667 0.682667
ITEM: TIMESTEP
100
ITEM: NUMBER OF ATOMS
16
ITEM: BOX BOUNDS pp pp pp
-3.8475000000000001e+00 8.4525000000000006e+00
-3.8475000000000001e+00 8.4525000000000006e+00
-3.8475000000000001e+00 8.4525000000000006e+00
ITEM: ATOMS id type xs ys zs
2 1 0.328396 0.328396 0.551495
5 1 0.551495 0.328396 0.328396
6 1 0.554115 0.303828 0.554115
3 1 0.328396 0.551495 0.328396
4 1 0.303828 0.554115 0.554115
1 1 0.335576 0.335576 0.335576
7 1 0.554115 0.554115 0.303828
8 1 0.56435 0.56435 0.56435
9 2 0.445045 0.445045 0.445045
10 2 0.434323 0.434323 0.689759
13 2 0.689759 0.434323 0.434323
14 2 0.679932 0.433749 0.679932
11 2 0.434323 0.689759 0.434323
12 2 0.433749 0.679932 0.679932
15 2 0.679932 0.679932 0.433749
16 2 0.682667 0.682667 0.682667
ITEM: TIMESTEP
200
ITEM: NUMBER OF ATOMS
16
ITEM: BOX BOUNDS pp pp pp
-3.8475000000000001e+00 8.4525000000000006e+00
-3.8475000000000001e+00 8.4525000000000006e+00
-3.8475000000000001e+00 8.4525000000000006e+00
ITEM: ATOMS id type xs ys zs
2 1 0.328396 0.328396 0.551495
5 1 0.551495 0.328396 0.328396
6 1 0.554115 0.303828 0.554115
3 1 0.328396 0.551495 0.328396
4 1 0.303828 0.554115 0.554115
1 1 0.335576 0.335576 0.335576
7 1 0.554115 0.554115 0.303828
8 1 0.56435 0.56435 0.56435
9 2 0.445045 0.445045 0.445045
10 2 0.434323 0.434323 0.689759
13 2 0.689759 0.434323 0.434323
14 2 0.679932 0.433749 0.679932
11 2 0.434323 0.689759 0.434323
12 2 0.433749 0.679932 0.679932
15 2 0.679932 0.679932 0.433749
16 2 0.682667 0.682667 0.682667
ITEM: TIMESTEP
300
ITEM: NUMBER OF ATOMS
16
ITEM: BOX BOUNDS pp pp pp
-3.8475000000000001e+00 8.4525000000000006e+00
-3.8475000000000001e+00 8.4525000000000006e+00
-3.8475000000000001e+00 8.4525000000000006e+00
ITEM: ATOMS id type xs ys zs
2 1 0.328396 0.328396 0.551495
5 1 0.551495 0.328396 0.328396
6 1 0.554115 0.303828 0.554115
3 1 0.328396 0.551495 0.328396
4 1 0.303828 0.554115 0.554115
1 1 0.335576 0.335576 0.335576
7 1 0.554115 0.554115 0.303828
8 1 0.56435 0.56435 0.56435
9 2 0.445045 0.445045 0.445045
10 2 0.434323 0.434323 0.689759
13 2 0.689759 0.434323 0.434323
14 2 0.679932 0.433749 0.679932
11 2 0.434323 0.689759 0.434323
12 2 0.433749 0.679932 0.679932
15 2 0.679932 0.679932 0.433749
16 2 0.682667 0.682667 0.682667
ITEM: TIMESTEP
400
ITEM: NUMBER OF ATOMS
16
ITEM: BOX BOUNDS pp pp pp
-3.8475000000000001e+00 8.4525000000000006e+00
-3.8475000000000001e+00 8.4525000000000006e+00
-3.8475000000000001e+00 8.4525000000000006e+00
ITEM: ATOMS id type xs ys zs
2 1 0.328396 0.328396 0.551495
5 1 0.551495 0.328396 0.328396
6 1 0.554115 0.303828 0.554115
3 1 0.328396 0.551495 0.328396
4 1 0.303828 0.554115 0.554115
1 1 0.335576 0.335576 0.335576
7 1 0.554115 0.554115 0.303828
8 1 0.56435 0.56435 0.56435
9 2 0.445045 0.445045 0.445045
10 2 0.434323 0.434323 0.689759
13 2 0.689759 0.434323 0.434323
14 2 0.679932 0.433749 0.679932
11 2 0.434323 0.689759 0.434323
12 2 0.433749 0.679932 0.679932
15 2 0.679932 0.679932 0.433749
16 2 0.682667 0.682667 0.682667
ITEM: TIMESTEP
500
ITEM: NUMBER OF ATOMS
16
ITEM: BOX BOUNDS pp pp pp
-3.8475000000000001e+00 8.4525000000000006e+00
-3.8475000000000001e+00 8.4525000000000006e+00
-3.8475000000000001e+00 8.4525000000000006e+00
ITEM: ATOMS id type xs ys zs
2 1 0.328396 0.328396 0.551495
5 1 0.551495 0.328396 0.328396
6 1 0.554115 0.303828 0.554115
3 1 0.328396 0.551495 0.328396
4 1 0.303828 0.554115 0.554115
1 1 0.335576 0.335576 0.335576
7 1 0.554115 0.554115 0.303828
8 1 0.56435 0.56435 0.56435
9 2 0.445045 0.445045 0.445045
10 2 0.434323 0.434323 0.689759
13 2 0.689759 0.434323 0.434323
14 2 0.679932 0.433749 0.679932
11 2 0.434323 0.689759 0.434323
12 2 0.433749 0.679932 0.679932
15 2 0.679932 0.679932 0.433749
16 2 0.682667 0.682667 0.682667
ITEM: TIMESTEP
600
ITEM: NUMBER OF ATOMS
16
ITEM: BOX BOUNDS pp pp pp
-3.8475000000000001e+00 8.4525000000000006e+00
-3.8475000000000001e+00 8.4525000000000006e+00
-3.8475000000000001e+00 8.4525000000000006e+00
ITEM: ATOMS id type xs ys zs
2 1 0.328396 0.328396 0.551495
5 1 0.551495 0.328396 0.328396
6 1 0.554115 0.303828 0.554115
3 1 0.328396 0.551495 0.328396
4 1 0.303828 0.554115 0.554115
1 1 0.335576 0.335576 0.335576
7 1 0.554115 0.554115 0.303828
8 1 0.56435 0.56435 0.56435
9 2 0.445045 0.445045 0.445045
10 2 0.434323 0.434323 0.689759
13 2 0.689759 0.434323 0.434323
14 2 0.679932 0.433749 0.679932
11 2 0.434323 0.689759 0.434323
12 2 0.433749 0.679932 0.679932
15 2 0.679932 0.679932 0.433749
16 2 0.682667 0.682667 0.682667
ITEM: TIMESTEP
700
ITEM: NUMBER OF ATOMS
16
ITEM: BOX BOUNDS pp pp pp
-3.8475000000000001e+00 8.4525000000000006e+00
-3.8475000000000001e+00 8.4525000000000006e+00
-3.8475000000000001e+00 8.4525000000000006e+00
ITEM: ATOMS id type xs ys zs
2 1 0.328396 0.328396 0.551495
5 1 0.551495 0.328396 0.328396
6 1 0.554115 0.303828 0.554115
3 1 0.328396 0.551495 0.328396
4 1 0.303828 0.554115 0.554115
1 1 0.335576 0.335576 0.335576
7 1 0.554115 0.554115 0.303828
8 1 0.56435 0.56435 0.56435
9 2 0.445045 0.445045 0.445045
10 2 0.434323 0.434323 0.689759
13 2 0.689759 0.434323 0.434323
14 2 0.679932 0.433749 0.679932
11 2 0.434323 0.689759 0.434323
12 2 0.433749 0.679932 0.679932
15 2 0.679932 0.679932 0.433749
16 2 0.682667 0.682667 0.682667
ITEM: TIMESTEP
800
ITEM: NUMBER OF ATOMS
16
ITEM: BOX BOUNDS pp pp pp
-3.8475000000000001e+00 8.4525000000000006e+00
-3.8475000000000001e+00 8.4525000000000006e+00
-3.8475000000000001e+00 8.4525000000000006e+00
ITEM: ATOMS id type xs ys zs
2 1 0.328396 0.328396 0.551495
5 1 0.551495 0.328396 0.328396
6 1 0.554115 0.303828 0.554115
3 1 0.328396 0.551495 0.328396
4 1 0.303828 0.554115 0.554115
1 1 0.335576 0.335576 0.335576
7 1 0.554115 0.554115 0.303828
8 1 0.56435 0.56435 0.56435
9 2 0.445045 0.445045 0.445045
10 2 0.434323 0.434323 0.689759
13 2 0.689759 0.434323 0.434323
14 2 0.679932 0.433749 0.679932
11 2 0.434323 0.689759 0.434323
12 2 0.433749 0.679932 0.679932
15 2 0.679932 0.679932 0.433749
16 2 0.682667 0.682667 0.682667
ITEM: TIMESTEP
900
ITEM: NUMBER OF ATOMS
16
ITEM: BOX BOUNDS pp pp pp
-3.8475000000000001e+00 8.4525000000000006e+00
-3.8475000000000001e+00 8.4525000000000006e+00
-3.8475000000000001e+00 8.4525000000000006e+00
ITEM: ATOMS id type xs ys zs
2 1 0.328396 0.328396 0.551495
5 1 0.551495 0.328396 0.328396
6 1 0.554115 0.303828 0.554115
3 1 0.328396 0.551495 0.328396
4 1 0.303828 0.554115 0.554115
1 1 0.335576 0.335576 0.335576
7 1 0.554115 0.554115 0.303828
8 1 0.56435 0.56435 0.56435
9 2 0.445045 0.445045 0.445045
10 2 0.434323 0.434323 0.689759
13 2 0.689759 0.434323 0.434323
14 2 0.679932 0.433749 0.679932
11 2 0.434323 0.689759 0.434323
12 2 0.433749 0.679932 0.679932
15 2 0.679932 0.679932 0.433749
16 2 0.682667 0.682667 0.682667
ITEM: TIMESTEP
1000
ITEM: NUMBER OF ATOMS
16
ITEM: BOX BOUNDS pp pp pp
-3.8475000000000001e+00 8.4525000000000006e+00
-3.8475000000000001e+00 8.4525000000000006e+00
-3.8475000000000001e+00 8.4525000000000006e+00
ITEM: ATOMS id type xs ys zs
2 1 0.328396 0.328396 0.551495
5 1 0.551495 0.328396 0.328396
6 1 0.554115 0.303828 0.554115
3 1 0.328396 0.551495 0.328396
4 1 0.303828 0.554115 0.554115
1 1 0.335576 0.335576 0.335576
7 1 0.554115 0.554115 0.303828
8 1 0.56435 0.56435 0.56435
9 2 0.445045 0.445045 0.445045
10 2 0.434323 0.434323 0.689759
13 2 0.689759 0.434323 0.434323
14 2 0.679932 0.433749 0.679932
11 2 0.434323 0.689759 0.434323
12 2 0.433749 0.679932 0.679932
15 2 0.679932 0.679932 0.433749
16 2 0.682667 0.682667 0.682667
ITEM: TIMESTEP
1100
ITEM: NUMBER OF ATOMS
16
ITEM: BOX BOUNDS pp pp pp
-3.8475000000000001e+00 8.4525000000000006e+00
-3.8475000000000001e+00 8.4525000000000006e+00
-3.8475000000000001e+00 8.4525000000000006e+00
ITEM: ATOMS id type xs ys zs
2 1 0.328396 0.328396 0.551495
5 1 0.551495 0.328396 0.328396
6 1 0.554115 0.303828 0.554115
3 1 0.328396 0.551495 0.328396
4 1 0.303828 0.554115 0.554115
1 1 0.335576 0.335576 0.335576
7 1 0.554115 0.554115 0.303828
8 1 0.56435 0.56435 0.56435
9 2 0.445045 0.445045 0.445045
10 2 0.434323 0.434323 0.689759
13 2 0.689759 0.434323 0.434323
14 2 0.679932 0.433749 0.679932
11 2 0.434323 0.689759 0.434323
12 2 0.433749 0.679932 0.679932
15 2 0.679932 0.679932 0.433749
16 2 0.682667 0.682667 0.682667
ITEM: TIMESTEP
1200
ITEM: NUMBER OF ATOMS
16
ITEM: BOX BOUNDS pp pp pp
-3.8475000000000001e+00 8.4525000000000006e+00
-3.8475000000000001e+00 8.4525000000000006e+00
-3.8475000000000001e+00 8.4525000000000006e+00
ITEM: ATOMS id type xs ys zs
2 1 0.328396 0.328396 0.551495
5 1 0.551495 0.328396 0.328396
6 1 0.554115 0.303828 0.554115
3 1 0.328396 0.551495 0.328396
4 1 0.303828 0.554115 0.554115
1 1 0.335576 0.335576 0.335576
7 1 0.554115 0.554115 0.303828
8 1 0.56435 0.56435 0.56435
9 2 0.445045 0.445045 0.445045
10 2 0.434323 0.434323 0.689759
13 2 0.689759 0.434323 0.434323
14 2 0.679932 0.433749 0.679932
11 2 0.434323 0.689759 0.434323
12 2 0.433749 0.679932 0.679932
15 2 0.679932 0.679932 0.433749
16 2 0.682667 0.682667 0.682667
ITEM: TIMESTEP
1300
ITEM: NUMBER OF ATOMS
16
ITEM: BOX BOUNDS pp pp pp
-3.8475000000000001e+00 8.4525000000000006e+00
-3.8475000000000001e+00 8.4525000000000006e+00
-3.8475000000000001e+00 8.4525000000000006e+00
ITEM: ATOMS id type xs ys zs
2 1 0.328396 0.328396 0.551495
5 1 0.551495 0.328396 0.328396
6 1 0.554115 0.303828 0.554115
3 1 0.328396 0.551495 0.328396
4 1 0.303828 0.554115 0.554115
1 1 0.335576 0.335576 0.335576
7 1 0.554115 0.554115 0.303828
8 1 0.56435 0.56435 0.56435
9 2 0.445045 0.445045 0.445045
10 2 0.434323 0.434323 0.689759
13 2 0.689759 0.434323 0.434323
14 2 0.679931 0.433749 0.679932
11 2 0.434323 0.689759 0.434323
12 2 0.433749 0.679932 0.679931
15 2 0.679932 0.679931 0.433749
16 2 0.682667 0.682667 0.682667
ITEM: TIMESTEP
1400
ITEM: NUMBER OF ATOMS
16
ITEM: BOX BOUNDS pp pp pp
-3.8475000000000001e+00 8.4525000000000006e+00
-3.8475000000000001e+00 8.4525000000000006e+00
-3.8475000000000001e+00 8.4525000000000006e+00
ITEM: ATOMS id type xs ys zs
2 1 0.328397 0.328395 0.551495
5 1 0.551495 0.328397 0.328395
6 1 0.554114 0.303828 0.554115
3 1 0.328395 0.551495 0.328397
4 1 0.303828 0.554115 0.554114
1 1 0.335576 0.335576 0.335576
7 1 0.554115 0.554114 0.303828
8 1 0.56435 0.56435 0.56435
9 2 0.445045 0.445045 0.445045
10 2 0.434323 0.434323 0.689759
13 2 0.689759 0.434323 0.434323
14 2 0.679931 0.433749 0.679932
11 2 0.434323 0.689759 0.434323
12 2 0.433749 0.679932 0.679931
15 2 0.679932 0.679931 0.433749
16 2 0.682667 0.682667 0.682667
ITEM: TIMESTEP
1500
ITEM: NUMBER OF ATOMS
16
ITEM: BOX BOUNDS pp pp pp
-3.8475000000000001e+00 8.4525000000000006e+00
-3.8475000000000001e+00 8.4525000000000006e+00
-3.8475000000000001e+00 8.4525000000000006e+00
ITEM: ATOMS id type xs ys zs
2 1 0.3284 0.328392 0.551494
5 1 0.551495 0.3284 0.328392
6 1 0.554113 0.303828 0.554116
3 1 0.328391 0.551495 0.328401
4 1 0.303828 0.554116 0.554113
1 1 0.335575 0.335575 0.335576
7 1 0.554117 0.554113 0.303828
8 1 0.56435 0.56435 0.56435
9 2 0.445045 0.445045 0.445045
10 2 0.434323 0.434324 0.689759
13 2 0.689759 0.434323 0.434324
14 2 0.679931 0.433749 0.679932
11 2 0.434324 0.689759 0.434323
12 2 0.433749 0.679932 0.679931
15 2 0.679932 0.679931 0.433749
16 2 0.682667 0.682667 0.682667
ITEM: TIMESTEP
1600
ITEM: NUMBER OF ATOMS
16
ITEM: BOX BOUNDS pp pp pp
-3.8475000000000001e+00 8.4525000000000006e+00
-3.8475000000000001e+00 8.4525000000000006e+00
-3.8475000000000001e+00 8.4525000000000006e+00
ITEM: ATOMS id type xs ys zs
2 1 0.328419 0.328373 0.551494
5 1 0.551495 0.328417 0.328375
6 1 0.554106 0.303828 0.554123
3 1 0.328369 0.551495 0.328422
4 1 0.303828 0.554124 0.554105
1 1 0.335575 0.335575 0.335577
7 1 0.554125 0.554107 0.303829
8 1 0.56435 0.56435 0.56435
9 2 0.445045 0.445045 0.445044
10 2 0.434322 0.434325 0.689758
13 2 0.689759 0.434322 0.434325
14 2 0.679929 0.433749 0.679934
11 2 0.434325 0.689759 0.434322
12 2 0.433749 0.679934 0.679929
15 2 0.679934 0.679929 0.433749
16 2 0.682667 0.682667 0.682667
ITEM: TIMESTEP
1700
ITEM: NUMBER OF ATOMS
16
ITEM: BOX BOUNDS pp pp pp
-3.8475000000000001e+00 8.4525000000000006e+00
-3.8475000000000001e+00 8.4525000000000006e+00
-3.8475000000000001e+00 8.4525000000000006e+00
ITEM: ATOMS id type xs ys zs
2 1 0.328524 0.328268 0.55149
5 1 0.551497 0.328513 0.328279
6 1 0.554067 0.303827 0.554159
3 1 0.328252 0.551496 0.32854
4 1 0.303827 0.554164 0.55406
1 1 0.335571 0.335572 0.335583
7 1 0.554169 0.554069 0.303831
8 1 0.564351 0.56435 0.564349
9 2 0.445047 0.445046 0.445041
10 2 0.434314 0.434332 0.689755
13 2 0.689761 0.434315 0.434332
14 2 0.679919 0.433749 0.679944
11 2 0.434333 0.68976 0.434314
12 2 0.433749 0.679944 0.679918
15 2 0.679945 0.67992 0.43375
16 2 0.682667 0.682667 0.682668
ITEM: TIMESTEP
1800
ITEM: NUMBER OF ATOMS
16
ITEM: BOX BOUNDS pp pp pp
-3.8475000000000001e+00 8.4525000000000006e+00
-3.8475000000000001e+00 8.4525000000000006e+00
-3.8475000000000001e+00 8.4525000000000006e+00
ITEM: ATOMS id type xs ys zs
2 1 0.329107 0.327684 0.551472
5 1 0.551505 0.32905 0.32774
6 1 0.553854 0.303825 0.554366
3 1 0.327602 0.551501 0.329186
4 1 0.303823 0.554393 0.553822
1 1 0.335552 0.335559 0.335614
7 1 0.554417 0.553864 0.303842
8 1 0.564352 0.564352 0.564346
9 2 0.445054 0.445052 0.445026
10 2 0.434271 0.434371 0.689741
13 2 0.689768 0.434276 0.434373
14 2 0.679861 0.433748 0.679999
11 2 0.434375 0.689765 0.434272
12 2 0.433747 0.680001 0.679858
15 2 0.680005 0.679865 0.433754
16 2 0.682666 0.682666 0.68267
ITEM: TIMESTEP
1900
ITEM: NUMBER OF ATOMS
16
ITEM: BOX BOUNDS pp pp pp
-3.8475000000000001e+00 8.4525000000000006e+00
-3.8475000000000001e+00 8.4525000000000006e+00
-3.8475000000000001e+00 8.4525000000000006e+00
ITEM: ATOMS id type xs ys zs
2 1 0.33234 0.324395 0.551339
5 1 0.55151 0.332056 0.324684
6 1 0.552768 0.303854 0.555616
3 1 0.32396 0.551473 0.332734
4 1 0.303837 0.555777 0.552643
1 1 0.335448 0.335487 0.335762
7 1 0.555943 0.552794 0.303937
8 1 0.564366 0.56436 0.564334
9 2 0.445052 0.445072 0.444918
10 2 0.434024 0.43458 0.689646
13 2 0.689787 0.434047 0.434594
14 2 0.679543 0.433753 0.680309
11 2 0.434597 0.689761 0.434017
12 2 0.433751 0.680319 0.679527
15 2 0.680344 0.67956 0.433784
16 2 0.682662 0.682664 0.68268
ITEM: TIMESTEP
2000
ITEM: NUMBER OF ATOMS
16
ITEM: BOX BOUNDS pp pp pp
-3.8475000000000001e+00 8.4525000000000006e+00
-3.8475000000000001e+00 8.4525000000000006e+00
-3.8475000000000001e+00 8.4525000000000006e+00
ITEM: ATOMS id type xs ys zs
2 1 0.350441 0.304985 0.54961
5 1 0.550603 0.348861 0.306744
6 1 0.549694 0.30481 0.565026
3 1 0.302247 0.550168 0.352512
4 1 0.304516 0.5665 0.549821
1 1 0.334703 0.334943 0.336287
7 1 0.568331 0.549282 0.305044
8 1 0.564538 0.564442 0.564355
9 2 0.44408 0.444826 0.443593
10 2 0.432231 0.435556 0.688476
13 2 0.689332 0.432409 0.435799
14 2 0.677813 0.434075 0.682108
11 2 0.435568 0.688952 0.431993
12 2 0.434128 0.682158 0.677723
15 2 0.682333 0.677868 0.434297
16 2 0.68268 0.682674 0.682768
ITEM: TIMESTEP
2100
ITEM: NUMBER OF ATOMS
16
ITEM: BOX BOUNDS pp pp pp
-3.8475000000000001e+00 8.4525000000000006e+00
-3.8475000000000001e+00 8.4525000000000006e+00
-3.8475000000000001e+00 8.4525000000000006e+00
ITEM: ATOMS id type xs ys zs
1 1 0.328398 0.328881 0.33537
2 1 0.391537 0.269955 0.537357
6 1 0.56942 0.298864 0.588801
3 1 0.267691 0.53984 0.394694
4 1 0.296041 0.592304 0.571906
5 1 0.542171 0.389926 0.27064
7 1 0.593175 0.566726 0.29619
8 1 0.565001 0.564675 0.564868
9 2 0.43762 0.439398 0.436607
10 2 0.425234 0.437858 0.681182
13 2 0.683558 0.425611 0.439314
14 2 0.671889 0.43945 0.689734
11 2 0.437068 0.682845 0.424717
12 2 0.440131 0.689521 0.6716
15 2 0.690025 0.671814 0.44002
16 2 0.683404 0.683169 0.683672
ITEM: TIMESTEP
2200
ITEM: NUMBER OF ATOMS
16
ITEM: BOX BOUNDS pp pp pp
-3.8475000000000001e+00 8.4525000000000006e+00
-3.8475000000000001e+00 8.4525000000000006e+00
-3.8475000000000001e+00 8.4525000000000006e+00
ITEM: ATOMS id type xs ys zs
1 1 0.315914 0.315504 0.343862
2 1 0.395301 0.279544 0.539054
6 1 0.581479 0.293125 0.583469
3 1 0.279921 0.548143 0.400855
4 1 0.292693 0.586872 0.585596
5 1 0.555274 0.399668 0.279508
7 1 0.583398 0.584301 0.294094
8 1 0.564335 0.564765 0.564405
9 2 0.437158 0.434994 0.428788
10 2 0.425276 0.439181 0.669849
13 2 0.673167 0.42526 0.439715
14 2 0.66755 0.443721 0.69313
11 2 0.437848 0.672861 0.426185
12 2 0.444206 0.69245 0.668552
15 2 0.691801 0.668247 0.443899
16 2 0.687075 0.686195 0.686627
ITEM: TIMESTEP
2300
ITEM: NUMBER OF ATOMS
16
ITEM: BOX BOUNDS pp pp pp
-3.8475000000000001e+00 8.4525000000000006e+00
-3.8475000000000001e+00 8.4525000000000006e+00
-3.8475000000000001e+00 8.4525000000000006e+00
ITEM: ATOMS id type xs ys zs
1 1 0.296745 0.29012 0.391108
2 1 0.370874 0.281424 0.550796
6 1 0.556013 0.303968 0.56921
3 1 0.282861 0.571032 0.38544
4 1 0.298751 0.580345 0.569042
5 1 0.594657 0.388511 0.274173
7 1 0.568836 0.570411 0.300289
8 1 0.564951 0.565533 0.564469
9 2 0.433674 0.429525 0.411142
10 2 0.429126 0.441278 0.668177
13 2 0.684192 0.42963 0.445553
14 2 0.671715 0.43804 0.689485
11 2 0.44159 0.680048 0.433737
12 2 0.439899 0.688251 0.677524
15 2 0.68703 0.675856 0.43929
16 2 0.688134 0.686984 0.68738
ITEM: TIMESTEP
2400
ITEM: NUMBER OF ATOMS
16
ITEM: BOX BOUNDS pp pp pp
-3.8475000000000001e+00 8.4525000000000006e+00
-3.8475000000000001e+00 8.4525000000000006e+00
-3.8475000000000001e+00 8.4525000000000006e+00
ITEM: ATOMS id type xs ys zs
1 1 0.296781 0.284799 0.395232
2 1 0.364344 0.288786 0.567074
6 1 0.560015 0.313734 0.555891
3 1 0.294524 0.569078 0.366722
4 1 0.304249 0.581775 0.558256
5 1 0.586359 0.375531 0.284606
7 1 0.577243 0.564764 0.30915
8 1 0.564833 0.562186 0.559808
9 2 0.431667 0.427039 0.413907
10 2 0.427458 0.445614 0.664751
13 2 0.687158 0.436362 0.443898
14 2 0.673106 0.435239 0.689395
11 2 0.44186 0.682868 0.439489
12 2 0.440099 0.684598 0.684061
15 2 0.686093 0.681341 0.436985
16 2 0.683144 0.680031 0.682341
ITEM: TIMESTEP
2500
ITEM: NUMBER OF ATOMS
16
ITEM: BOX BOUNDS pp pp pp
-3.8475000000000001e+00 8.4525000000000006e+00
-3.8475000000000001e+00 8.4525000000000006e+00
-3.8475000000000001e+00 8.4525000000000006e+00
ITEM: ATOMS id type xs ys zs
1 1 0.311431 0.286928 0.376566
2 1 0.38165 0.276693 0.554277
6 1 0.561223 0.30551 0.572958
3 1 0.292861 0.566655 0.366001
4 1 0.299412 0.576368 0.55559
5 1 0.560618 0.379277 0.285476
7 1 0.579292 0.565828 0.301015
8 1 0.564139 0.564306 0.563948
9 2 0.43469 0.43412 0.430135
10 2 0.42232 0.44236 0.675004
13 2 0.683225 0.440131 0.4363
14 2 0.670233 0.434224 0.687092
11 2 0.441846 0.679269 0.432815
12 2 0.439004 0.69042 0.677752
15 2 0.693164 0.68372 0.440409
16 2 0.68536 0.675066 0.682126
ITEM: TIMESTEP
2600
ITEM: NUMBER OF ATOMS
16
ITEM: BOX BOUNDS pp pp pp
-3.8475000000000001e+00 8.4525000000000006e+00
-3.8475000000000001e+00 8.4525000000000006e+00
-3.8475000000000001e+00 8.4525000000000006e+00
ITEM: ATOMS id type xs ys zs
1 1 0.334454 0.284705 0.371368
2 1 0.382032 0.277931 0.553214
6 1 0.569991 0.292354 0.579466
3 1 0.285542 0.568054 0.382625
4 1 0.307203 0.575588 0.563465
5 1 0.559553 0.400497 0.276805
7 1 0.580032 0.582748 0.296639
8 1 0.561324 0.564787 0.561889
9 2 0.427728 0.433697 0.432645
10 2 0.425784 0.434274 0.686876
13 2 0.673973 0.4327 0.435393
14 2 0.666667 0.43677 0.682445
11 2 0.447821 0.684763 0.419368
12 2 0.438772 0.689929 0.663402
15 2 0.690412 0.676837 0.443495
16 2 0.689077 0.682164 0.694872
ITEM: TIMESTEP
2700
ITEM: NUMBER OF ATOMS
16
ITEM: BOX BOUNDS pp pp pp
-3.8475000000000001e+00 8.4525000000000006e+00
-3.8475000000000001e+00 8.4525000000000006e+00
-3.8475000000000001e+00 8.4525000000000006e+00
ITEM: ATOMS id type xs ys zs
1 1 0.349523 0.257202 0.386134
2 1 0.372043 0.278779 0.56367
6 1 0.560338 0.304411 0.566864
3 1 0.287765 0.587388 0.37644
4 1 0.30474 0.569142 0.567994
5 1 0.544896 0.415771 0.278325
7 1 0.601467 0.598193 0.287838
8 1 0.566364 0.563062 0.561856
9 2 0.417764 0.432464 0.432175
10 2 0.437112 0.438653 0.673867
13 2 0.66601 0.424093 0.438063
14 2 0.678683 0.439418 0.685152
11 2 0.448288 0.688568 0.414904
12 2 0.44348 0.6834 0.666385
15 2 0.690795 0.668766 0.451497
16 2 0.675821 0.686885 0.695263
ITEM: TIMESTEP
2800
ITEM: NUMBER OF ATOMS
16
ITEM: BOX BOUNDS pp pp pp
-3.8475000000000001e+00 8.4525000000000006e+00
-3.8475000000000001e+00 8.4525000000000006e+00
-3.8475000000000001e+00 8.4525000000000006e+00
ITEM: ATOMS id type xs ys zs
1 1 0.339403 0.240976 0.389783
2 1 0.368633 0.284923 0.578306
6 1 0.557744 0.301534 0.574863
3 1 0.287379 0.581522 0.367732
4 1 0.30366 0.57123 0.550519
5 1 0.53734 0.431276 0.267585
7 1 0.607064 0.594227 0.294468
8 1 0.562972 0.564456 0.562258
9 2 0.407742 0.427224 0.427387
10 2 0.439022 0.443151 0.675287
13 2 0.662475 0.433174 0.433057
14 2 0.692288 0.437618 0.684326
11 2 0.460804 0.679252 0.427577
12 2 0.422386 0.688175 0.672498
15 2 0.708071 0.67323 0.449967
16 2 0.672637 0.681664 0.688382
ITEM: TIMESTEP
2900
ITEM: NUMBER OF ATOMS
16
ITEM: BOX BOUNDS pp pp pp
-3.8475000000000001e+00 8.4525000000000006e+00
-3.8475000000000001e+00 8.4525000000000006e+00
-3.8475000000000001e+00 8.4525000000000006e+00
ITEM: ATOMS id type xs ys zs
1 1 0.309619 0.260023 0.402054
2 1 0.381134 0.276295 0.573965
6 1 0.564367 0.30331 0.567144
3 1 0.309852 0.572456 0.359542
4 1 0.301754 0.573181 0.547211
5 1 0.540555 0.416865 0.273981
7 1 0.603664 0.600629 0.291928
8 1 0.56249 0.567284 0.565392
9 2 0.418221 0.420119 0.432561
10 2 0.440174 0.443756 0.682452
13 2 0.656226 0.442305 0.425824
14 2 0.678366 0.437146 0.672344
11 2 0.461389 0.669861 0.432016
12 2 0.420703 0.691976 0.669302
15 2 0.713787 0.677772 0.451428
16 2 0.673549 0.680585 0.693953
ITEM: TIMESTEP
3000
ITEM: NUMBER OF ATOMS
16
ITEM: BOX BOUNDS pp pp pp
-3.8475000000000001e+00 8.4525000000000006e+00
-3.8475000000000001e+00 8.4525000000000006e+00
-3.8475000000000001e+00 8.4525000000000006e+00
ITEM: ATOMS id type xs ys zs
1 1 0.291809 0.283614 0.422424
2 1 0.37867 0.270676 0.578178
6 1 0.572467 0.30074 0.551212
3 1 0.297472 0.563525 0.358068
4 1 0.314892 0.568288 0.547852
5 1 0.543407 0.415231 0.27196
7 1 0.601515 0.592118 0.290212
8 1 0.564178 0.565573 0.561685
9 2 0.422988 0.418246 0.439886
10 2 0.425129 0.439008 0.681138
13 2 0.67705 0.44057 0.423519
14 2 0.674187 0.435313 0.672008
11 2 0.454875 0.680136 0.416674
12 2 0.438707 0.688285 0.666219
15 2 0.697098 0.681586 0.455855
16 2 0.67532 0.683724 0.704459
ITEM: TIMESTEP
3100
ITEM: NUMBER OF ATOMS
16
ITEM: BOX BOUNDS pp pp pp
-3.8475000000000001e+00 8.4525000000000006e+00
-3.8475000000000001e+00 8.4525000000000006e+00
-3.8475000000000001e+00 8.4525000000000006e+00
ITEM: ATOMS id type xs ys zs
1 1 0.283762 0.292264 0.429467
2 1 0.388264 0.273679 0.578276
6 1 0.566998 0.304004 0.561239
3 1 0.292798 0.562356 0.36798
4 1 0.313142 0.576377 0.555684
5 1 0.558576 0.413326 0.27265
7 1 0.606823 0.596256 0.29253
8 1 0.55939 0.558637 0.559326
9 2 0.430582 0.425185 0.430383
10 2 0.427363 0.438776 0.682565
13 2 0.680722 0.441101 0.431676
14 2 0.671512 0.43145 0.676128
11 2 0.448344 0.678943 0.412029
12 2 0.442051 0.688203 0.661562
15 2 0.683359 0.685199 0.45568
16 2 0.67968 0.67243 0.698153
ITEM: TIMESTEP
3200
ITEM: NUMBER OF ATOMS
16
ITEM: BOX BOUNDS pp pp pp
-3.8475000000000001e+00 8.4525000000000006e+00
-3.8475000000000001e+00 8.4525000000000006e+00
-3.8475000000000001e+00 8.4525000000000006e+00
ITEM: ATOMS id type xs ys zs
1 1 0.290878 0.288738 0.400958
2 1 0.38238 0.284055 0.576375
6 1 0.567623 0.299822 0.55776
3 1 0.288838 0.558729 0.364206
4 1 0.304641 0.570545 0.551488
5 1 0.571032 0.411966 0.278028
7 1 0.599708 0.595631 0.292216
8 1 0.562881 0.561365 0.55962
9 2 0.427242 0.425675 0.43205
10 2 0.434114 0.44704 0.679239
13 2 0.67546 0.445182 0.43582
14 2 0.676247 0.423839 0.688795
11 2 0.441882 0.672467 0.422796
12 2 0.433908 0.695042 0.66555
15 2 0.692413 0.689249 0.446722
16 2 0.682925 0.664761 0.689093
ITEM: TIMESTEP
3300
ITEM: NUMBER OF ATOMS
16
ITEM: BOX BOUNDS pp pp pp
-3.8475000000000001e+00 8.4525000000000006e+00
-3.8475000000000001e+00 8.4525000000000006e+00
-3.8475000000000001e+00 8.4525000000000006e+00
ITEM: ATOMS id type xs ys zs
1 1 0.320019 0.26884 0.384113
2 1 0.360214 0.279542 0.558778
6 1 0.556385 0.308112 0.565421
3 1 0.294819 0.559224 0.366465
4 1 0.299345 0.574828 0.556469
5 1 0.545745 0.408534 0.279283
7 1 0.589284 0.585186 0.294436
8 1 0.56881 0.567599 0.566645
9 2 0.42445 0.420964 0.429144
10 2 0.430415 0.449042 0.67241
13 2 0.677594 0.443531 0.440809
14 2 0.679233 0.423294 0.684471
11 2 0.449045 0.673953 0.433275
12 2 0.435517 0.693336 0.674462
15 2 0.696463 0.686063 0.440271
16 2 0.682341 0.679258 0.688167
ITEM: TIMESTEP
3400
ITEM: NUMBER OF ATOMS
16
ITEM: BOX BOUNDS pp pp pp
-3.8475000000000001e+00 8.4525000000000006e+00
-3.8475000000000001e+00 8.4525000000000006e+00
-3.8475000000000001e+00 8.4525000000000006e+00
ITEM: ATOMS id type xs ys zs
1 1 0.347009 0.246993 0.379194
2 1 0.36092 0.281767 0.560749
6 1 0.54969 0.298275 0.574345
3 1 0.290697 0.581939 0.376844
4 1 0.312779 0.584845 0.563997
5 1 0.562118 0.395311 0.270772
7 1 0.587871 0.583671 0.297761
8 1 0.562121 0.569967 0.564915
9 2 0.423353 0.422895 0.424042
10 2 0.42544 0.435759 0.673776
13 2 0.668003 0.430159 0.427857
14 2 0.667934 0.448185 0.678
11 2 0.453217 0.681085 0.431556
12 2 0.445163 0.685512 0.681428
15 2 0.693677 0.676141 0.448822
16 2 0.685703 0.692667 0.692003
ITEM: TIMESTEP
3500
ITEM: NUMBER OF ATOMS
16
ITEM: BOX BOUNDS pp pp pp
-3.8475000000000001e+00 8.4525000000000006e+00
-3.8475000000000001e+00 8.4525000000000006e+00
-3.8475000000000001e+00 8.4525000000000006e+00
ITEM: ATOMS id type xs ys zs
1 1 0.354561 0.255267 0.373387
2 1 0.382239 0.278236 0.561323
6 1 0.563199 0.307496 0.570824
3 1 0.289441 0.575994 0.376429
4 1 0.31194 0.569454 0.559987
5 1 0.546496 0.396954 0.267216
7 1 0.579212 0.57736 0.301836
8 1 0.557372 0.563303 0.560788
9 2 0.424316 0.435633 0.421974
10 2 0.425133 0.43715 0.676152
13 2 0.668664 0.426607 0.435008
14 2 0.667427 0.447014 0.683397
11 2 0.447361 0.691283 0.42974
12 2 0.441545 0.684944 0.680344
15 2 0.69734 0.665241 0.445357
16 2 0.687038 0.690622 0.690979
ITEM: TIMESTEP
3600
ITEM: NUMBER OF ATOMS
16
ITEM: BOX BOUNDS pp pp pp
-3.8475000000000001e+00 8.4525000000000006e+00
-3.8475000000000001e+00 8.4525000000000006e+00
-3.8475000000000001e+00 8.4525000000000006e+00
ITEM: ATOMS id type xs ys zs
1 1 0.356186 0.283651 0.358037
2 1 0.386318 0.281046 0.543285
6 1 0.58116 0.295437 0.581132
3 1 0.289199 0.586316 0.366774
4 1 0.298521 0.579 0.554416
5 1 0.542187 0.376971 0.283931
7 1 0.569544 0.567224 0.303403
8 1 0.566634 0.562933 0.564392
9 2 0.422279 0.44521 0.43281
10 2 0.433697 0.440248 0.67532
13 2 0.675485 0.428828 0.44257
14 2 0.678797 0.431686 0.692086
11 2 0.444722 0.689642 0.43343
12 2 0.431619 0.690615 0.673395
15 2 0.691876 0.671317 0.437972
16 2 0.678626 0.678175 0.680716
ITEM: TIMESTEP
3700
ITEM: NUMBER OF ATOMS
16
ITEM: BOX BOUNDS pp pp pp
-3.8475000000000001e+00 8.4525000000000006e+00
-3.8475000000000001e+00 8.4525000000000006e+00
-3.8475000000000001e+00 8.4525000000000006e+00
ITEM: ATOMS id type xs ys zs
1 1 0.384767 0.293886 0.337047
2 1 0.396453 0.287481 0.541606
6 1 0.575218 0.284107 0.599039
3 1 0.282631 0.592376 0.369763
4 1 0.294227 0.592532 0.560658
5 1 0.548163 0.352303 0.306339
7 1 0.570189 0.546233 0.311515
8 1 0.562279 0.563725 0.562383
9 2 0.41697 0.456798 0.429989
10 2 0.43936 0.433658 0.676152
13 2 0.669015 0.42398 0.444319
14 2 0.682744 0.431353 0.688318
11 2 0.443609 0.696711 0.429225
12 2 0.431904 0.686149 0.672856
15 2 0.687383 0.67704 0.43541
16 2 0.678242 0.676526 0.681289
ITEM: TIMESTEP
3800
ITEM: NUMBER OF ATOMS
16
ITEM: BOX BOUNDS pp pp pp
-3.8475000000000001e+00 8.4525000000000006e+00
-3.8475000000000001e+00 8.4525000000000006e+00
-3.8475000000000001e+00 8.4525000000000006e+00
ITEM: ATOMS id type xs ys zs
1 1 0.399295 0.27143 0.352849
2 1 0.398898 0.282967 0.536147
6 1 0.575951 0.288714 0.595502
3 1 0.274438 0.603995 0.379441
4 1 0.300853 0.5747 0.563954
5 1 0.556545 0.36635 0.290543
7 1 0.562848 0.559425 0.308402
8 1 0.558663 0.563171 0.560253
9 2 0.411296 0.456601 0.423895
10 2 0.432467 0.431653 0.670367
13 2 0.666633 0.418179 0.450964
14 2 0.677934 0.443474 0.688896
11 2 0.440209 0.707451 0.426826
12 2 0.442161 0.678222 0.676407
15 2 0.69038 0.660726 0.437207
16 2 0.683727 0.686523 0.683406
ITEM: TIMESTEP
3900
ITEM: NUMBER OF ATOMS
16
ITEM: BOX BOUNDS pp pp pp
-3.8475000000000001e+00 8.4525000000000006e+00
-3.8475000000000001e+00 8.4525000000000006e+00
-3.8475000000000001e+00 8.4525000000000006e+00
ITEM: ATOMS id type xs ys zs
1 1 0.414454 0.264936 0.354609
2 1 0.402573 0.275664 0.533759
6 1 0.584964 0.290196 0.596996
3 1 0.280562 0.606654 0.391279
4 1 0.295675 0.57293 0.572438
5 1 0.543274 0.383635 0.275017
7 1 0.562341 0.569283 0.306616
8 1 0.562489 0.560441 0.560749
9 2 0.411173 0.454561 0.420963
10 2 0.428698 0.434341 0.6627
13 2 0.663434 0.412129 0.445283
14 2 0.667455 0.450137 0.697356
11 2 0.448266 0.696662 0.438836
12 2 0.440139 0.68026 0.679144
15 2 0.692216 0.656519 0.436796
16 2 0.687292 0.693992 0.675465
ITEM: TIMESTEP
4000
ITEM: NUMBER OF ATOMS
16
ITEM: BOX BOUNDS pp pp pp
-3.8475000000000001e+00 8.4525000000000006e+00
-3.8475000000000001e+00 8.4525000000000006e+00
-3.8475000000000001e+00 8.4525000000000006e+00
ITEM: ATOMS id type xs ys zs
1 1 0.412382 0.274636 0.332489
2 1 0.410959 0.27953 0.532226
6 1 0.578915 0.288466 0.611323
3 1 0.280441 0.598503 0.388402
4 1 0.296322 0.586704 0.575807
5 1 0.553255 0.374598 0.287379