ITEM: TIMESTEP
0
ITEM: NUMBER OF ATOMS
402
ITEM: BOX BOUNDS pp pp pp
5.0000000000000000e-01 1.8600000000000001e+01
5.0000000000000000e-01 1.8600000000000001e+01
5.0000000000000000e-01 1.5000000000000000e+01
ITEM: ATOMS id type xs ys zs
1 2 0.174742 0.116521 0.18291
376 1 0.110913 0.143807 0.0543916
303 1 0.106475 0.0157639 0.223149
29 2 0.162096 0.0418267 0.00230527
218 2 0.0293447 0.0537565 0.102219
172 2 0.341139 0.176356 0.18591
190 2 0.305842 0.0534862 0.093722
10 2 0.395898 0.0495172 0.243385
128 2 0.234828 0.175247 0.0302731
358 1 0.499733 0.0640466 0.170363
385 1 0.546998 0.168247 0.0474861
109 2 0.500125 0.193481 0.191243
230 2 0.43781 0.102087 0.049895
41 2 0.590167 0.044212 0.0648351
199 2 0.653126 0.17228 0.130915
19 2 0.725017 0.0198366 0.15911
367 1 0.771582 0.158801 0.2073
290 1 0.705044 0.0648673 0.0144502
338 1 0.623017 0.0722653 0.20777
53 2 0.788212 0.147576 0.050275
208 2 0.901394 0.158577 0.18641
254 1 0.914302 0.100427 0.0439468
302 1 0.833698 0.056807 0.14561
304 1 0.949957 0.0446365 0.218993
97 2 0.837625 0.000565189 0.00330321
349 1 0.10139 0.217431 0.187364
4 2 0.123787 0.379186 0.177594
266 1 0.0079878 0.345054 0.0762244
65 2 0.117149 0.275703 0.0390686
100 2 0.213526 0.265696 0.19399
283 1 0.30068 0.25893 0.0911797
13 2 0.348693 0.340605 0.175963
33 2 0.243049 0.351322 0.0285576
140 2 0.590224 0.279697 0.0189747
45 2 0.489704 0.353138 0.128214
77 2 0.41223 0.24807 0.0466835
181 2 0.610403 0.302089 0.206838
295 1 0.603164 0.394088 0.0653113
242 2 0.755156 0.276091 0.166815
163 2 0.994287 0.284452 0.217015
394 1 0.872736 0.238786 0.0344969
118 2 0.880095 0.349367 0.0893071
313 1 0.872601 0.274723 0.205648
152 2 0.998771 0.201536 0.0725613
166 2 0.00476886 0.579083 0.158084
379 1 0.123127 0.406793 0.0186507
69 2 0.127808 0.51816 0.123582
175 2 0.271136 0.467071 0.163364
286 1 0.31149 0.52928 0.0500375
334 1 0.35272 0.554772 0.203443
234 2 0.370756 0.431767 0.0283963
388 1 0.487693 0.43836 0.0214377
81 2 0.47574 0.503399 0.151962
144 2 0.582705 0.510401 0.0127501
202 2 0.609229 0.4598 0.191859
89 2 0.720234 0.400264 0.0888565
246 2 0.714397 0.549581 0.0939288
211 2 0.988535 0.429517 0.187531
397 1 0.820704 0.559214 0.0142848
57 2 0.828488 0.471063 0.185192
222 2 0.923687 0.497886 0.0551161
7 2 0.112436 0.687731 0.135788
272 1 0.0551904 0.62809 0.0287424
382 1 0.149268 0.764291 0.0109071
196 2 0.33574 0.692378 0.217182
37 2 0.248602 0.616596 0.106198
136 2 0.237399 0.77113 0.115337
112 2 0.588333 0.60912 0.218872
16 2 0.484206 0.738573 0.222398
391 1 0.419657 0.722087 0.0946533
238 2 0.405142 0.600478 0.0663646
49 2 0.53442 0.651073 0.0676682
205 2 0.623403 0.778061 0.155593
25 2 0.728001 0.688243 0.203908
298 1 0.658883 0.66326 0.0816603
93 2 0.775802 0.686445 0.0153322
121 2 0.854943 0.623751 0.146577
214 2 0.971395 0.7261 0.165016
271 1 0.915145 0.741958 0.0346352
61 2 0.830938 0.780735 0.138359
169 2 0.0818826 0.837713 0.120239
355 1 0.186225 0.857607 0.195816
255 1 0.11112 0.956834 0.0923991
301 1 0.00627591 0.930101 0.188983
73 2 0.187897 0.892622 0.0085432
106 2 0.219125 0.967493 0.191124
178 2 0.36922 0.830301 0.130655
278 1 0.293345 0.929445 0.0662838
325 1 0.344938 0.93636 0.205216
115 2 0.591936 0.955164 0.229583
364 1 0.525555 0.856762 0.180142
85 2 0.456473 0.953673 0.121049
148 2 0.504992 0.808226 0.0434556
187 2 0.724378 0.881336 0.18336
289 1 0.620666 0.911864 0.0829595
400 1 0.799872 0.893521 0.057938
250 2 0.70794 0.819011 0.013959
124 2 0.868197 0.943594 0.183681
256 1 0.944363 0.976911 0.0599577
160 2 0.947254 0.857998 0.0661046
2 2 0.0369721 0.104663 0.467399
30 2 0.15902 0.0369987 0.358447
219 2 0.0443985 0.123375 0.269264
377 1 0.126667 0.152121 0.38351
326 1 0.269209 0.0741767 0.259792
129 2 0.24164 0.179873 0.344777
191 2 0.308344 0.053815 0.410047
231 2 0.40437 0.165727 0.360425
11 2 0.456903 0.0389072 0.466476
42 2 0.536256 0.0803895 0.312228
386 1 0.502712 0.15186 0.442482
200 2 0.617102 0.090842 0.46277
20 2 0.761783 0.040889 0.477033
182 2 0.726079 0.193739 0.467883
243 2 0.685602 0.136631 0.307249
292 1 0.701919 0.0163995 0.326459
54 2 0.829247 0.064404 0.302684
153 2 0.939971 0.194443 0.362135
209 2 0.90811 0.0136646 0.473192
395 1 0.83421 0.135598 0.424527
258 1 0.950895 0.0796881 0.36347
314 1 0.128242 0.385177 0.329913
5 2 0.0643102 0.380009 0.454296
66 2 0.102527 0.264273 0.33171
331 1 0.329708 0.261015 0.298991
193 2 0.250181 0.377703 0.307862
284 1 0.205766 0.299354 0.408059
194 2 0.325216 0.291441 0.443161
141 2 0.573544 0.222251 0.364852
46 2 0.599161 0.361949 0.387161
78 2 0.450246 0.299883 0.306675
79 2 0.464446 0.262895 0.494486
22 2 0.731912 0.38848 0.281423
23 2 0.748762 0.345083 0.459149
296 1 0.688479 0.275652 0.333685
90 2 0.809187 0.233789 0.328652
58 2 0.880602 0.366947 0.304456
119 2 0.885455 0.299678 0.480816
268 1 0.983271 0.304548 0.371591
352 1 0.184987 0.489353 0.256756
34 2 0.17978 0.488108 0.415949
223 2 0.0698733 0.500148 0.309471
380 1 0.0890677 0.582304 0.423469
133 2 0.296939 0.562825 0.336709
176 2 0.31716 0.435598 0.456072
235 2 0.394439 0.44884 0.28273
361 1 0.51325 0.40162 0.274769
14 2 0.45488 0.403412 0.442509
145 2 0.545432 0.510964 0.362659
389 1 0.40889 0.530162 0.415515
343 1 0.646783 0.459185 0.326044
184 2 0.713434 0.5481 0.281628
247 2 0.692475 0.481975 0.453283
370 1 0.827538 0.566356 0.270435
267 1 0.98197 0.423682 0.349447
94 2 0.818426 0.583429 0.420324
157 2 0.93054 0.530824 0.324373
212 2 0.91583 0.443059 0.475633
398 1 0.811641 0.45853 0.375506
103 2 0.179706 0.608664 0.26505
320 1 0.065355 0.771332 0.253784
70 2 0.0427907 0.656641 0.323339
104 2 0.182458 0.648777 0.441488
38 2 0.187174 0.751249 0.287949
227 2 0.0964308 0.775027 0.425592
197 2 0.255405 0.779497 0.469087
239 2 0.39734 0.773115 0.368363
287 1 0.285605 0.692039 0.357316
17 2 0.375658 0.649542 0.461923
82 2 0.444226 0.603484 0.283345
50 2 0.521445 0.678136 0.39833
392 1 0.49689 0.775206 0.471962
346 1 0.612653 0.711996 0.296702
185 2 0.645757 0.623317 0.423934
206 2 0.623766 0.786741 0.49599
26 2 0.758795 0.70809 0.495213
251 2 0.713297 0.783713 0.342622
299 1 0.74676 0.660345 0.346869
319 1 0.937854 0.639078 0.25453
62 2 0.859854 0.715055 0.315964
273 1 0.971381 0.749722 0.38068
274 1 0.949712 0.626699 0.426947
401 1 0.820349 0.798174 0.421977
74 2 0.100132 0.89784 0.295039
170 2 0.0680027 0.960444 0.472919
383 1 0.186037 0.857763 0.388831
259 1 0.0178258 0.865796 0.408844
260 1 0.0231181 0.991587 0.335569
137 2 0.288732 0.850438 0.28902
179 2 0.353327 0.907713 0.447442
279 1 0.253275 0.957417 0.35384
280 1 0.39814 0.988489 0.363083
86 2 0.443285 0.897359 0.290759
116 2 0.501872 0.893906 0.49158
149 2 0.563607 0.825392 0.337457
291 1 0.527681 0.965294 0.3661
337 1 0.667595 0.887812 0.309503
98 2 0.786514 0.926311 0.354946
188 2 0.641828 0.944715 0.432984
373 1 0.824432 0.833491 0.268447
125 2 0.906008 0.875441 0.459473
161 2 0.953086 0.841114 0.277804
257 1 0.906937 0.950397 0.331479
31 2 0.194902 0.0856974 0.535744
220 2 0.0254487 0.148779 0.654314
350 1 0.143316 0.173104 0.638667
263 1 0.0221114 0.0318054 0.714357
308 1 0.0882971 0.0493071 0.584056
3 2 0.138257 0.0793155 0.74353
173 2 0.326987 0.163262 0.530503
130 2 0.25744 0.17588 0.699145
232 2 0.331016 0.0133025 0.593719
282 1 0.211999 0.0049553 0.64502
43 2 0.481863 0.00644742 0.654674
142 2 0.523104 0.146893 0.590248
359 1 0.417313 0.0975266 0.581373
174 2 0.401319 0.127948 0.71952
244 2 0.671263 0.110862 0.626014
368 1 0.78212 0.132835 0.585067
396 1 0.765804 0.0984184 0.731037
294 1 0.602574 0.0253861 0.683264
55 2 0.844622 0.0270578 0.652452
154 2 0.893605 0.161666 0.549402
306 1 0.95191 0.0649556 0.595562
210 2 0.873817 0.162427 0.734408
164 2 0.0243981 0.248837 0.508371
101 2 0.166112 0.218682 0.504899
35 2 0.195362 0.368657 0.535735
67 2 0.0989179 0.292901 0.651752
285 1 0.386641 0.236657 0.630876
332 1 0.26234 0.26746 0.583092
236 2 0.347139 0.355842 0.616158
102 2 0.23133 0.317374 0.723924
47 2 0.498809 0.294951 0.659319
344 1 0.595417 0.211107 0.675418
362 1 0.457866 0.39526 0.59675
204 2 0.597162 0.399072 0.728644
110 2 0.623178 0.271458 0.545117
91 2 0.775876 0.253921 0.624594
297 1 0.67374 0.30564 0.685152
59 2 0.859284 0.374454 0.629385
269 1 0.861532 0.286167 0.74253
315 1 0.993993 0.36818 0.586297
316 1 0.947101 0.256545 0.639642
213 2 0.957211 0.39051 0.746128
167 2 0.0439232 0.509077 0.520086
71 2 0.150043 0.593605 0.639665
224 2 0.09255 0.443117 0.673116
353 1 0.167557 0.488908 0.563485
168 2 0.0141345 0.584644 0.713155
134 2 0.275448 0.556186 0.534922
83 2 0.399248 0.501729 0.594591
288 1 0.268001 0.57784 0.679461
195 2 0.240085 0.45684 0.683742
113 2 0.503783 0.567138 0.518579
203 2 0.573527 0.41358 0.549251
390 1 0.516039 0.493904 0.668143
114 2 0.472528 0.597653 0.735255
146 2 0.623988 0.539626 0.604471
95 2 0.758723 0.578917 0.584999
248 2 0.716834 0.409392 0.622581
122 2 0.909786 0.574929 0.560336
158 2 0.847497 0.50979 0.69851
371 1 0.802018 0.466773 0.536343
322 1 0.970543 0.485095 0.643973
8 2 0.041133 0.658304 0.529284
39 2 0.140849 0.733465 0.616482
276 1 0.0290921 0.745087 0.683762
240 2 0.395918 0.782684 0.55837
335 1 0.250932 0.67665 0.557973
138 2 0.26461 0.765287 0.668644
18 2 0.36382 0.656214 0.64392
51 2 0.523117 0.697964 0.592009
300 1 0.584949 0.623484 0.693842
365 1 0.593574 0.791395 0.645603
393 1 0.454826 0.729285 0.723341
252 2 0.706792 0.762744 0.660724
347 1 0.650456 0.668533 0.566121
27 2 0.698359 0.626664 0.735512
215 2 0.902399 0.725795 0.505035
63 2 0.834511 0.678331 0.685401
321 1 0.950781 0.672732 0.6345
374 1 0.811101 0.777461 0.598035
228 2 0.0226427 0.825006 0.562498
75 2 0.0994127 0.939517 0.659487
356 1 0.146579 0.844569 0.5604
384 1 0.149584 0.825652 0.733321
107 2 0.209904 0.93721 0.502653
281 1 0.366425 0.836802 0.691812
327 1 0.293971 0.859888 0.561497
108 2 0.250686 0.901368 0.695875
328 1 0.410085 0.920087 0.586717
87 2 0.492764 0.847357 0.67551
339 1 0.56442 0.997411 0.531584
150 2 0.620493 0.914219 0.620758
99 2 0.751652 0.872513 0.525071
293 1 0.740593 0.877133 0.688078
340 1 0.72614 0.983943 0.598248
162 2 0.908529 0.81916 0.659202
262 1 0.934216 0.945136 0.710659
305 1 0.850642 0.916735 0.587795
307 1 0.982737 0.943469 0.578009
217 2 0.0866833 0.15888 0.906395
310 1 0.000254611 0.0634746 0.946079
312 1 0.100119 0.0395231 0.875631
28 2 0.286539 0.00506476 0.928122
351 1 0.216365 0.117323 0.871457
127 2 0.337862 0.156247 0.90277
192 2 0.284038 0.044623 0.762565
229 2 0.433109 0.0450706 0.859933
201 2 0.562172 0.117248 0.772121
360 1 0.539167 0.0760629 0.922306
76 2 0.482278 0.191286 0.910437
139 2 0.64386 0.157719 0.936831
183 2 0.700882 0.197723 0.769074
241 2 0.776326 0.0960055 0.876707
342 1 0.650267 0.0508974 0.856031
264 1 0.996234 0.130531 0.801884
52 2 0.919326 0.0285608 0.826387
151 2 0.912633 0.160555 0.916658
378 1 0.138627 0.213114 0.775832
270 1 0.066734 0.354527 0.770888
165 2 0.00215744 0.252037 0.790782
6 2 0.161358 0.397487 0.84983
318 1 0.107146 0.287666 0.893459
221 2 0.0229592 0.377558 0.927351
32 2 0.317881 0.39917 0.862403
64 2 0.224872 0.253544 0.882381
333 1 0.340906 0.29445 0.935401
15 2 0.374994 0.273158 0.785225
387 1 0.479545 0.210884 0.764802
44 2 0.469928 0.345725 0.92527
111 2 0.572488 0.278142 0.816914
24 2 0.7528 0.339187 0.796244
88 2 0.752014 0.280436 0.986152
345 1 0.671114 0.274413 0.885745
245 2 0.64389 0.39335 0.915795
369 1 0.802797 0.218237 0.862836
120 2 0.883523 0.312719 0.895335
317 1 0.988285 0.257048 0.940712
381 1 0.0447628 0.482193 0.812605
68 2 0.0591663 0.516527 0.968436
105 2 0.145636 0.551863 0.813722
354 1 0.244768 0.488817 0.831788
131 2 0.315357 0.579154 0.916972
132 2 0.213727 0.491924 0.98092
177 2 0.352498 0.52424 0.763038
233 2 0.443551 0.413331 0.756008
80 2 0.45149 0.516613 0.909533
143 2 0.584667 0.535319 0.807702
363 1 0.536433 0.431056 0.853474
186 2 0.721285 0.48483 0.784465
372 1 0.695983 0.500868 0.943075
265 1 0.916076 0.410998 0.966646
399 1 0.846069 0.420313 0.81026
56 2 0.800364 0.440797 0.95229
123 2 0.807141 0.589543 0.862464
155 2 0.931792 0.506521 0.863846
9 2 0.102893 0.710818 0.799537
36 2 0.168057 0.647374 0.956016
226 2 0.0334417 0.744861 0.973451
324 1 0.0345789 0.618906 0.864716
198 2 0.243699 0.658977 0.784639
237 2 0.321775 0.7105 0.983177
336 1 0.3631 0.653807 0.808038
135 2 0.216257 0.789412 0.866894
180 2 0.357778 0.777191 0.814503
48 2 0.461404 0.67501 0.897205
207 2 0.577653 0.7187 0.776412
348 1 0.550104 0.602404 0.925297
366 1 0.41881 0.775597 0.945104
92 2 0.671377 0.617171 0.919899
249 2 0.607241 0.736405 0.949932
60 2 0.741694 0.740345 0.83731
275 1 0.903027 0.602164 0.772171
402 1 0.850064 0.778643 0.780359
156 2 0.935332 0.629597 0.977645
216 2 0.950603 0.714857 0.809231
323 1 0.852207 0.694165 0.899777
225 2 0.0385389 0.93647 0.964431
72 2 0.161308 0.941275 0.83405
171 2 0.0228284 0.851567 0.764797
357 1 0.0985474 0.834147 0.893821
311 1 0.0248187 0.958382 0.823267
277 1 0.280345 0.820336 0.989263
12 2 0.390595 0.933514 0.77154
329 1 0.285384 0.89668 0.8493
84 2 0.381413 0.886025 0.957418
40 2 0.523242 0.950382 0.970407
330 1 0.401142 0.999018 0.989294
117 2 0.561453 0.964439 0.803982
147 2 0.497297 0.828107 0.850462
341 1 0.597267 0.860667 0.933459
21 2 0.713011 0.991919 0.752176
96 2 0.688867 0.956892 0.950478
189 2 0.649251 0.852489 0.795278
309 1 0.794473 0.982022 0.867715
375 1 0.748914 0.86185 0.879699
253 1 0.912232 0.927203 0.913125
261 1 0.968505 0.820249 0.891064
126 2 0.836342 0.899288 0.777408
159 2 0.852173 0.816692 0.936919
ITEM: TIMESTEP
100
ITEM: NUMBER OF ATOMS
402
ITEM: BOX BOUNDS pp pp pp
5.0000000000000000e-01 1.8600000000000001e+01
5.0000000000000000e-01 1.8600000000000001e+01
5.0000000000000000e-01 1.5000000000000000e+01
ITEM: ATOMS id type xs ys zs
1 2 0.174742 0.116521 0.18291
376 1 0.110913 0.143807 0.0543916
303 1 0.106475 0.0157639 0.223149
29 2 0.162096 0.0418267 0.00230527
218 2 0.0293447 0.0537565 0.102219
172 2 0.341139 0.176356 0.18591
190 2 0.305842 0.0534862 0.093722
10 2 0.395898 0.0495172 0.243385
128 2 0.234828 0.175247 0.0302731
358 1 0.499733 0.0640466 0.170363
385 1 0.546998 0.168247 0.0474861
109 2 0.500125 0.193481 0.191243
230 2 0.43781 0.102087 0.049895
41 2 0.590167 0.044212 0.0648351
199 2 0.653126 0.17228 0.130915
19 2 0.725017 0.0198366 0.15911
367 1 0.771582 0.158801 0.2073
290 1 0.705044 0.0648673 0.0144502
338 1 0.623017 0.0722653 0.20777
53 2 0.788212 0.147576 0.050275
208 2 0.901394 0.158577 0.18641
254 1 0.914302 0.100427 0.0439468
302 1 0.833698 0.056807 0.14561
304 1 0.949957 0.0446365 0.218993
97 2 0.837625 0.000565189 0.00330321
349 1 0.10139 0.217431 0.187364
4 2 0.123787 0.379186 0.177594
266 1 0.0079878 0.345054 0.0762244
65 2 0.117149 0.275703 0.0390686
100 2 0.213526 0.265696 0.19399
283 1 0.30068 0.25893 0.0911797
13 2 0.348693 0.340605 0.175963
33 2 0.243049 0.351322 0.0285576
140 2 0.590224 0.279697 0.0189747
45 2 0.489704 0.353138 0.128214
77 2 0.41223 0.24807 0.0466835
181 2 0.610403 0.302089 0.206838
295 1 0.603164 0.394088 0.0653113
242 2 0.755156 0.276091 0.166815
163 2 0.994287 0.284452 0.217015
394 1 0.872736 0.238786 0.0344969
118 2 0.880095 0.349367 0.0893071
313 1 0.872601 0.274723 0.205648
152 2 0.998771 0.201536 0.0725613
166 2 0.00476886 0.579083 0.158084
379 1 0.123127 0.406793 0.0186507
69 2 0.127808 0.51816 0.123582
175 2 0.271136 0.467071 0.163364
286 1 0.31149 0.52928 0.0500375
334 1 0.35272 0.554772 0.203443
234 2 0.370756 0.431767 0.0283963
388 1 0.487693 0.43836 0.0214377
81 2 0.47574 0.503399 0.151962
144 2 0.582705 0.510401 0.0127501
202 2 0.609229 0.4598 0.191859
89 2 0.720234 0.400264 0.0888565
246 2 0.714397 0.549581 0.0939288
211 2 0.988535 0.429517 0.187531
397 1 0.820704 0.559214 0.0142848
57 2 0.828488 0.471063 0.185192
222 2 0.923687 0.497886 0.0551161
7 2 0.112436 0.687731 0.135788
272 1 0.0551904 0.62809 0.0287424
382 1 0.149268 0.764291 0.0109071
196 2 0.33574 0.692378 0.217182
37 2 0.248602 0.616596 0.106198
136 2 0.237399 0.77113 0.115337
112 2 0.588333 0.60912 0.218872
16 2 0.484206 0.738573 0.222398
391 1 0.419657 0.722087 0.0946533
238 2 0.405142 0.600478 0.0663646
49 2 0.53442 0.651073 0.0676682
205 2 0.623403 0.778061 0.155593
25 2 0.728001 0.688243 0.203908
298 1 0.658883 0.66326 0.0816603
93 2 0.775802 0.686445 0.0153322
121 2 0.854943 0.623751 0.146577
214 2 0.971395 0.7261 0.165016
271 1 0.915145 0.741958 0.0346352
61 2 0.830938 0.780735 0.138359
169 2 0.0818826 0.837713 0.120239
355 1 0.186225 0.857607 0.195816
255 1 0.11112 0.956834 0.0923991
301 1 0.00627591 0.930101 0.188983
73 2 0.187897 0.892622 0.0085432
106 2 0.219125 0.967493 0.191124
178 2 0.36922 0.830301 0.130655
278 1 0.293345 0.929445 0.0662838
325 1 0.344938 0.93636 0.205216
115 2 0.591936 0.955164 0.229583
364 1 0.525555 0.856762 0.180142
85 2 0.456473 0.953673 0.121049
148 2 0.504992 0.808226 0.0434556
187 2 0.724378 0.881336 0.18336
289 1 0.620666 0.911864 0.0829595
400 1 0.799872 0.893521 0.057938
250 2 0.70794 0.819011 0.013959
124 2 0.868197 0.943594 0.183681
256 1 0.944363 0.976911 0.0599577
160 2 0.947254 0.857998 0.0661046
2 2 0.0369721 0.104663 0.467399
30 2 0.15902 0.0369987 0.358447
219 2 0.0443985 0.123375 0.269264
377 1 0.126667 0.152121 0.38351
326 1 0.269209 0.0741767 0.259792
129 2 0.24164 0.179873 0.344777
191 2 0.308344 0.053815 0.410047
231 2 0.40437 0.165727 0.360425
11 2 0.456903 0.0389072 0.466476
42 2 0.536256 0.0803895 0.312228
386 1 0.502712 0.15186 0.442482
200 2 0.617102 0.090842 0.46277
20 2 0.761783 0.040889 0.477033
182 2 0.726079 0.193739 0.467883
243 2 0.685602 0.136631 0.307249
292 1 0.701919 0.0163995 0.326459
54 2 0.829247 0.064404 0.302684
153 2 0.939971 0.194443 0.362135
209 2 0.90811 0.0136646 0.473192
395 1 0.83421 0.135598 0.424527
258 1 0.950895 0.0796881 0.36347
314 1 0.128242 0.385177 0.329913
5 2 0.0643102 0.380009 0.454296
66 2 0.102527 0.264273 0.33171
331 1 0.329708 0.261015 0.298991
193 2 0.250181 0.377703 0.307862
284 1 0.205766 0.299354 0.408059
194 2 0.325216 0.291441 0.443161
141 2 0.573544 0.222251 0.364852
46 2 0.599161 0.361949 0.387161
78 2 0.450246 0.299883 0.306675
79 2 0.464446 0.262895 0.494486
22 2 0.731912 0.38848 0.281423
23 2 0.748762 0.345083 0.459149
296 1 0.688479 0.275652 0.333685
90 2 0.809187 0.233789 0.328652
58 2 0.880602 0.366947 0.304456
119 2 0.885455 0.299678 0.480816
268 1 0.983271 0.304548 0.371591
352 1 0.184987 0.489353 0.256756
34 2 0.17978 0.488108 0.415949
223 2 0.0698733 0.500148 0.309471
380 1 0.0890677 0.582304 0.423469
133 2 0.296939 0.562825 0.336709
176 2 0.31716 0.435598 0.456072
235 2 0.394439 0.44884 0.28273
361 1 0.51325 0.40162 0.274769
14 2 0.45488 0.403412 0.442509
145 2 0.545432 0.510964 0.362659
389 1 0.40889 0.530162 0.415515
343 1 0.646783 0.459185 0.326044
184 2 0.713434 0.5481 0.281628
247 2 0.692475 0.481975 0.453283
370 1 0.827538 0.566356 0.270435
267 1 0.98197 0.423682 0.349447
94 2 0.818426 0.583429 0.420324
157 2 0.93054 0.530824 0.324373
212 2 0.91583 0.443059 0.475633
398 1 0.811641 0.45853 0.375506
103 2 0.179706 0.608664 0.26505
320 1 0.065355 0.771332 0.253784
70 2 0.0427907 0.656641 0.323339
104 2 0.182458 0.648777 0.441488
38 2 0.187174 0.751249 0.287949
227 2 0.0964308 0.775027 0.425592
197 2 0.255405 0.779497 0.469087
239 2 0.39734 0.773115 0.368363
287 1 0.285605 0.692039 0.357316
17 2 0.375658 0.649542 0.461923
82 2 0.444226 0.603484 0.283345
50 2 0.521445 0.678136 0.39833
392 1 0.49689 0.775206 0.471962
346 1 0.612653 0.711996 0.296702
185 2 0.645757 0.623317 0.423934
206 2 0.623766 0.786741 0.49599
26 2 0.758795 0.70809 0.495213
251 2 0.713297 0.783713 0.342622
299 1 0.74676 0.660345 0.346869
319 1 0.937854 0.639078 0.25453
62 2 0.859854 0.715055 0.315964
273 1 0.971381 0.749722 0.38068
274 1 0.949712 0.626699 0.426947
401 1 0.820349 0.798174 0.421977
74 2 0.100132 0.89784 0.295039
170 2 0.0680027 0.960444 0.472919
383 1 0.186037 0.857763 0.388831
259 1 0.0178258 0.865796 0.408844
260 1 0.0231181 0.991587 0.335569
137 2 0.288732 0.850438 0.28902
179 2 0.353327 0.907713 0.447442
279 1 0.253275 0.957417 0.35384
280 1 0.39814 0.988489 0.363083
86 2 0.443285 0.897359 0.290759
116 2 0.501872 0.893906 0.49158
149 2 0.563607 0.825392 0.337457
291 1 0.527681 0.965294 0.3661
337 1 0.667595 0.887812 0.309503
98 2 0.786514 0.926311 0.354946
188 2 0.641828 0.944715 0.432984
373 1 0.824432 0.833491 0.268447
125 2 0.906008 0.875441 0.459473
161 2 0.953086 0.841114 0.277804
257 1 0.906937 0.950397 0.331479
31 2 0.194902 0.0856974 0.535744
220 2 0.0254487 0.148779 0.654314
350 1 0.143316 0.173104 0.638667
263 1 0.0221114 0.0318054 0.714357
308 1 0.0882971 0.0493071 0.584056
3 2 0.138257 0.0793155 0.74353
173 2 0.326987 0.163262 0.530503
130 2 0.25744 0.17588 0.699145
232 2 0.331016 0.0133025 0.593719
282 1 0.211999 0.0049553 0.64502
43 2 0.481863 0.00644742 0.654674
142 2 0.523104 0.146893 0.590248
359 1 0.417313 0.0975266 0.581373
174 2 0.401319 0.127948 0.71952
244 2 0.671263 0.110862 0.626014
368 1 0.78212 0.132835 0.585067
396 1 0.765804 0.0984184 0.731037
294 1 0.602574 0.0253861 0.683264
55 2 0.844622 0.0270578 0.652452
154 2 0.893605 0.161666 0.549402
306 1 0.95191 0.0649556 0.595562
210 2 0.873817 0.162427 0.734408
164 2 0.0243981 0.248837 0.508371
101 2 0.166112 0.218682 0.504899
35 2 0.195362 0.368657 0.535735
67 2 0.0989179 0.292901 0.651752
285 1 0.386641 0.236657 0.630876
332 1 0.26234 0.26746 0.583092
236 2 0.347139 0.355842 0.616158
102 2 0.23133 0.317374 0.723924
47 2 0.498809 0.294951 0.659319
344 1 0.595417 0.211107 0.675418
362 1 0.457866 0.39526 0.59675
204 2 0.597162 0.399072 0.728644
110 2 0.623178 0.271458 0.545117
91 2 0.775876 0.253921 0.624594
297 1 0.67374 0.30564 0.685152
59 2 0.859284 0.374454 0.629385
269 1 0.861532 0.286167 0.74253
315 1 0.993993 0.36818 0.586297
316 1 0.947101 0.256545 0.639642
213 2 0.957211 0.39051 0.746128
167 2 0.0439232 0.509077 0.520086
71 2 0.150043 0.593605 0.639665
224 2 0.09255 0.443117 0.673116
353 1 0.167557 0.488908 0.563485
168 2 0.0141345 0.584644 0.713155
134 2 0.275448 0.556186 0.534922
83 2 0.399248 0.501729 0.594591
288 1 0.268001 0.57784 0.679461
195 2 0.240085 0.45684 0.683742
113 2 0.503783 0.567138 0.518579
203 2 0.573527 0.41358 0.549251
390 1 0.516039 0.493904 0.668143
114 2 0.472528 0.597653 0.735255
146 2 0.623988 0.539626 0.604471
95 2 0.758723 0.578917 0.584999
248 2 0.716834 0.409392 0.622581
122 2 0.909786 0.574929 0.560336
158 2 0.847497 0.50979 0.69851
371 1 0.802018 0.466773 0.536343
322 1 0.970543 0.485095 0.643973
8 2 0.041133 0.658304 0.529284
39 2 0.140849 0.733465 0.616482
276 1 0.0290921 0.745087 0.683762
240 2 0.395918 0.782684 0.55837
335 1 0.250932 0.67665 0.557973
138 2 0.26461 0.765287 0.668644
18 2 0.36382 0.656214 0.64392
51 2 0.523117 0.697964 0.592009
300 1 0.584949 0.623484 0.693842
365 1 0.593574 0.791395 0.645603
393 1 0.454826 0.729285 0.723341
252 2 0.706792 0.762744 0.660724
347 1 0.650456 0.668533 0.566121
27 2 0.698359 0.626664 0.735512
215 2 0.902399 0.725795 0.505035
63 2 0.834511 0.678331 0.685401
321 1 0.950781 0.672732 0.6345
374 1 0.811101 0.777461 0.598035
228 2 0.0226427 0.825006 0.562498
75 2 0.0994127 0.939517 0.659487
356 1 0.146579 0.844569 0.5604
384 1 0.149584 0.825652 0.733321
107 2 0.209904 0.93721 0.502653
281 1 0.366425 0.836802 0.691812
327 1 0.293971 0.859888 0.561497
108 2 0.250686 0.901368 0.695875
328 1 0.410085 0.920087 0.586717
87 2 0.492764 0.847357 0.67551
339 1 0.56442 0.997411 0.531584
150 2 0.620493 0.914219 0.620758
99 2 0.751652 0.872513 0.525071
293 1 0.740593 0.877133 0.688078
340 1 0.72614 0.983943 0.598248
162 2 0.908529 0.81916 0.659202
262 1 0.934216 0.945136 0.710659
305 1 0.850642 0.916735 0.587795
307 1 0.982737 0.943469 0.578009
217 2 0.0866833 0.15888 0.906395
310 1 0.000254611 0.0634746 0.946079
312 1 0.100119 0.0395231 0.875631
28 2 0.286539 0.00506476 0.928122
351 1 0.216365 0.117323 0.871457
127 2 0.337862 0.156247 0.90277
192 2 0.284038 0.044623 0.762565
229 2 0.433109 0.0450706 0.859933
201 2 0.562172 0.117248 0.772121
360 1 0.539167 0.0760629 0.922306
76 2 0.482278 0.191286 0.910437
139 2 0.64386 0.157719 0.936831
183 2 0.700882 0.197723 0.769074
241 2 0.776326 0.0960055 0.876707
342 1 0.650267 0.0508974 0.856031
264 1 0.996234 0.130531 0.801884
52 2 0.919326 0.0285608 0.826387
151 2 0.912633 0.160555 0.916658
378 1 0.138627 0.213114 0.775832
270 1 0.066734 0.354527 0.770888
165 2 0.00215744 0.252037 0.790782
6 2 0.161358 0.397487 0.84983
318 1 0.107146 0.287666 0.893459
221 2 0.0229592 0.377558 0.927351
32 2 0.317881 0.39917 0.862403
64 2 0.224872 0.253544 0.882381
333 1 0.340906 0.29445 0.935401
15 2 0.374994 0.273158 0.785225
387 1 0.479545 0.210884 0.764802
44 2 0.469928 0.345725 0.92527
111 2 0.572488 0.278142 0.816914
24 2 0.7528 0.339187 0.796244
88 2 0.752014 0.280436 0.986152
345 1 0.671114 0.274413 0.885745
245 2 0.64389 0.39335 0.915795
369 1 0.802797 0.218237 0.862836
120 2 0.883523 0.312719 0.895335
317 1 0.988285 0.257048 0.940712
381 1 0.0447628 0.482193 0.812605
68 2 0.0591663 0.516527 0.968436
105 2 0.145636 0.551863 0.813722
354 1 0.244768 0.488817 0.831788
131 2 0.315357 0.579154 0.916972
132 2 0.213727 0.491924 0.98092
177 2 0.352498 0.52424 0.763038
233 2 0.443551 0.413331 0.756008
80 2 0.45149 0.516613 0.909533
143 2 0.584667 0.535319 0.807702
363 1 0.536433 0.431056 0.853474
186 2 0.721285 0.48483 0.784465
372 1 0.695983 0.500868 0.943075
265 1 0.916076 0.410998 0.966646
399 1 0.846069 0.420313 0.81026
56 2 0.800364 0.440797 0.95229
123 2 0.807141 0.589543 0.862464
155 2 0.931792 0.506521 0.863846
9 2 0.102893 0.710818 0.799537
36 2 0.168057 0.647374 0.956016
226 2 0.0334417 0.744861 0.973451
324 1 0.0345789 0.618906 0.864716
198 2 0.243699 0.658977 0.784639
237 2 0.321775 0.7105 0.983177
336 1 0.3631 0.653807 0.808038
135 2 0.216257 0.789412 0.866894
180 2 0.357778 0.777191 0.814503
48 2 0.461404 0.67501 0.897205
207 2 0.577653 0.7187 0.776412
348 1 0.550104 0.602404 0.925297
366 1 0.41881 0.775597 0.945104
92 2 0.671377 0.617171 0.919899
249 2 0.607241 0.736405 0.949932
60 2 0.741694 0.740345 0.83731
275 1 0.903027 0.602164 0.772171
402 1 0.850064 0.778643 0.780359
156 2 0.935332 0.629597 0.977645
216 2 0.950603 0.714857 0.809231
323 1 0.852207 0.694165 0.899777
225 2 0.0385389 0.93647 0.964431
72 2 0.161308 0.941275 0.83405
171 2 0.0228284 0.851567 0.764797
357 1 0.0985474 0.834147 0.893821
311 1 0.0248187 0.958382 0.823267
277 1 0.280345 0.820336 0.989263
12 2 0.390595 0.933514 0.77154
329 1 0.285384 0.89668 0.8493
84 2 0.381413 0.886025 0.957418
40 2 0.523242 0.950382 0.970407
330 1 0.401142 0.999018 0.989294
117 2 0.561453 0.964439 0.803982
147 2 0.497297 0.828107 0.850462
341 1 0.597267 0.860667 0.933459
21 2 0.713011 0.991919 0.752176
96 2 0.688867 0.956892 0.950478
189 2 0.649251 0.852489 0.795278
309 1 0.794473 0.982022 0.867715
375 1 0.748914 0.86185 0.879699
253 1 0.912232 0.927203 0.913125
261 1 0.968505 0.820249 0.891064
126 2 0.836342 0.899288 0.777408
159 2 0.852173 0.816692 0.936919
ITEM: TIMESTEP
200
ITEM: NUMBER OF ATOMS
402
ITEM: BOX BOUNDS pp pp pp
5.0000000000000000e-01 1.8600000000000001e+01
5.0000000000000000e-01 1.8600000000000001e+01
5.0000000000000000e-01 1.5000000000000000e+01
ITEM: ATOMS id type xs ys zs
1 2 0.174742 0.116521 0.18291
376 1 0.110913 0.143807 0.0543916
303 1 0.106475 0.0157639 0.223149
29 2 0.162096 0.0418267 0.00230527
218 2 0.0293447 0.0537565 0.102219
172 2 0.341139 0.176356 0.18591
190 2 0.305842 0.0534862 0.093722
10 2 0.395898 0.0495172 0.243385
128 2 0.234828 0.175247 0.0302731
358 1 0.499733 0.0640466 0.170363
385 1 0.546998 0.168247 0.0474861
109 2 0.500125 0.193481 0.191243
230 2 0.43781 0.102087 0.049895
41 2 0.590167 0.044212 0.0648351
199 2 0.653126 0.17228 0.130915
19 2 0.725017 0.0198366 0.15911
367 1 0.771582 0.158801 0.2073
290 1 0.705044 0.0648673 0.0144502
338 1 0.623017 0.0722653 0.20777
53 2 0.788212 0.147576 0.050275
208 2 0.901394 0.158577 0.18641
254 1 0.914302 0.100427 0.0439468
302 1 0.833698 0.056807 0.14561
304 1 0.949957 0.0446365 0.218993
97 2 0.837625 0.00056519 0.00330321
349 1 0.10139 0.217431 0.187364
4 2 0.123787 0.379186 0.177594
266 1 0.0079878 0.345054 0.0762244
65 2 0.117149 0.275703 0.0390686
100 2 0.213526 0.265696 0.19399
283 1 0.30068 0.25893 0.0911797
13 2 0.348693 0.340605 0.175963
33 2 0.243049 0.351322 0.0285576
140 2 0.590224 0.279697 0.0189747
45 2 0.489704 0.353138 0.128214
77 2 0.41223 0.24807 0.0466835
181 2 0.610403 0.302089 0.206838
295 1 0.603164 0.394088 0.0653113
242 2 0.755156 0.276091 0.166815
163 2 0.994287 0.284452 0.217015
394 1 0.872736 0.238786 0.0344969
118 2 0.880095 0.349367 0.0893071
313 1 0.872601 0.274723 0.205648
152 2 0.998771 0.201536 0.0725613
166 2 0.00476886 0.579083 0.158084
379 1 0.123127 0.406793 0.0186507
69 2 0.127808 0.51816 0.123582
175 2 0.271136 0.467071 0.163364
286 1 0.31149 0.52928 0.0500375
334 1 0.35272 0.554772 0.203443
234 2 0.370756 0.431767 0.0283963
388 1 0.487693 0.43836 0.0214377
81 2 0.47574 0.503399 0.151962
144 2 0.582705 0.510401 0.0127501
202 2 0.609229 0.4598 0.191859
89 2 0.720234 0.400264 0.0888565
246 2 0.714397 0.549581 0.0939288
211 2 0.988535 0.429517 0.187531
397 1 0.820704 0.559214 0.0142848
57 2 0.828488 0.471063 0.185192
222 2 0.923687 0.497886 0.0551161
7 2 0.112436 0.687731 0.135788
272 1 0.0551904 0.62809 0.0287424
382 1 0.149268 0.764291 0.0109071
196 2 0.33574 0.692378 0.217182
37 2 0.248602 0.616596 0.106198
136 2 0.237399 0.77113 0.115337
112 2 0.588333 0.60912 0.218872
16 2 0.484206 0.738573 0.222398
391 1 0.419657 0.722087 0.0946533
238 2 0.405142 0.600478 0.0663646
49 2 0.53442 0.651073 0.0676682
205 2 0.623403 0.778061 0.155593
25 2 0.728001 0.688243 0.203908
298 1 0.658883 0.66326 0.0816603
93 2 0.775802 0.686445 0.0153322
121 2 0.854943 0.623751 0.146577
214 2 0.971395 0.7261 0.165016
271 1 0.915145 0.741958 0.0346352
61 2 0.830938 0.780735 0.138359
169 2 0.0818826 0.837713 0.120239
355 1 0.186225 0.857607 0.195816
255 1 0.11112 0.956834 0.0923991
301 1 0.00627591 0.930101 0.188983
73 2 0.187897 0.892622 0.0085432
106 2 0.219125 0.967493 0.191124
178 2 0.36922 0.830301 0.130655
278 1 0.293345 0.929445 0.0662838
325 1 0.344938 0.93636 0.205216
115 2 0.591936 0.955164 0.229583
364 1 0.525555 0.856762 0.180142