ITEM: TIMESTEP
0
ITEM: NUMBER OF ATOMS
402
ITEM: BOX BOUNDS pp pp pp
5.0000000000000000e-01 1.8600000000000001e+01
5.0000000000000000e-01 1.8600000000000001e+01
5.0000000000000000e-01 1.5000000000000000e+01
ITEM: ATOMS id type xs ys zs
1 2 0.0877138 0.0259603 0.136966
163 2 0.0259603 0.194883 0.136966
349 1 0.141298 0.141298 0.22269
376 1 0.141298 0.141298 0.0512414
172 2 0.363806 0.194883 0.136966
190 2 0.256636 0.0877138 0.136966
10 2 0.425559 0.0259603 0.136966
199 2 0.594482 0.0877138 0.136966
358 1 0.479144 0.141298 0.22269
385 1 0.479144 0.141298 0.0512414
19 2 0.763404 0.0259603 0.136966
181 2 0.701651 0.194883 0.136966
208 2 0.932327 0.0877138 0.136966
367 1 0.816989 0.141298 0.22269
394 1 0.816989 0.141298 0.0512414
4 2 0.0877138 0.363806 0.136966
100 2 0.194883 0.256636 0.136966
283 1 0.310221 0.310221 0.0512414
331 1 0.310221 0.310221 0.22269
13 2 0.425559 0.363806 0.136966
109 2 0.532728 0.256636 0.136966
22 2 0.763404 0.363806 0.136966
295 1 0.648066 0.310221 0.0512414
343 1 0.648066 0.310221 0.22269
118 2 0.870574 0.256636 0.136966
265 1 0.972376 0.310221 0.0512414
266 1 0.985912 0.310221 0.0512414
313 1 0.972376 0.310221 0.22269
314 1 0.985912 0.310221 0.22269
103 2 0.194883 0.594482 0.136966
166 2 0.0259603 0.532728 0.136966
352 1 0.141298 0.479144 0.22269
379 1 0.141298 0.479144 0.0512414
175 2 0.363806 0.532728 0.136966
193 2 0.256636 0.425559 0.136966
112 2 0.532728 0.594482 0.136966
202 2 0.594482 0.425559 0.136966
361 1 0.479144 0.479144 0.22269
388 1 0.479144 0.479144 0.0512414
184 2 0.701651 0.532728 0.136966
121 2 0.870574 0.594482 0.136966
211 2 0.932327 0.425559 0.136966
370 1 0.816989 0.479144 0.22269
397 1 0.816989 0.479144 0.0512414
7 2 0.0877138 0.701651 0.136966
196 2 0.256636 0.763404 0.136966
286 1 0.310221 0.648066 0.0512414
334 1 0.310221 0.648066 0.22269
16 2 0.425559 0.701651 0.136966
205 2 0.594482 0.763404 0.136966
25 2 0.763404 0.701651 0.136966
298 1 0.648066 0.648066 0.0512414
346 1 0.648066 0.648066 0.22269
214 2 0.932327 0.763404 0.136966
271 1 0.972376 0.648066 0.0512414
272 1 0.985912 0.648066 0.0512414
319 1 0.972376 0.648066 0.22269
320 1 0.985912 0.648066 0.22269
106 2 0.194883 0.932327 0.136966
169 2 0.0259603 0.870574 0.136966
355 1 0.141298 0.816989 0.22269
382 1 0.141298 0.816989 0.0512414
178 2 0.363806 0.870574 0.136966
277 1 0.310221 0.972376 0.0512414
278 1 0.310221 0.985912 0.0512414
325 1 0.310221 0.972376 0.22269
326 1 0.310221 0.985912 0.22269
115 2 0.532728 0.932327 0.136966
364 1 0.479144 0.816989 0.22269
391 1 0.479144 0.816989 0.0512414
187 2 0.701651 0.870574 0.136966
289 1 0.648066 0.972376 0.0512414
290 1 0.648066 0.985912 0.0512414
337 1 0.648066 0.972376 0.22269
338 1 0.648066 0.985912 0.22269
124 2 0.870574 0.932327 0.136966
253 1 0.972376 0.972376 0.0512414
254 1 0.972376 0.985912 0.0512414
255 1 0.985912 0.972376 0.0512414
256 1 0.985912 0.985912 0.0512414
301 1 0.972376 0.972376 0.22269
302 1 0.972376 0.985912 0.22269
303 1 0.985912 0.972376 0.22269
304 1 0.985912 0.985912 0.22269
373 1 0.816989 0.816989 0.22269
400 1 0.816989 0.816989 0.0512414
2 2 0.0877138 0.0259603 0.479862
30 2 0.194883 0.0259603 0.308414
164 2 0.0259603 0.194883 0.479862
219 2 0.0259603 0.0877138 0.308414
377 1 0.141298 0.141298 0.394138
129 2 0.256636 0.194883 0.308414
173 2 0.363806 0.194883 0.479862
191 2 0.256636 0.0877138 0.479862
231 2 0.363806 0.0877138 0.308414
11 2 0.425559 0.0259603 0.479862
42 2 0.532728 0.0259603 0.308414
141 2 0.594482 0.194883 0.308414
200 2 0.594482 0.0877138 0.479862
386 1 0.479144 0.141298 0.394138
20 2 0.763404 0.0259603 0.479862
182 2 0.701651 0.194883 0.479862
243 2 0.701651 0.0877138 0.308414
54 2 0.870574 0.0259603 0.308414
153 2 0.932327 0.194883 0.308414
209 2 0.932327 0.0877138 0.479862
395 1 0.816989 0.141298 0.394138
5 2 0.0877138 0.363806 0.479862
34 2 0.194883 0.363806 0.308414
66 2 0.0877138 0.256636 0.308414
101 2 0.194883 0.256636 0.479862
284 1 0.310221 0.310221 0.394138
14 2 0.425559 0.363806 0.479862
46 2 0.532728 0.363806 0.308414
78 2 0.425559 0.256636 0.308414
110 2 0.532728 0.256636 0.479862
23 2 0.763404 0.363806 0.479862
90 2 0.763404 0.256636 0.308414
296 1 0.648066 0.310221 0.394138
58 2 0.870574 0.363806 0.308414
119 2 0.870574 0.256636 0.479862
267 1 0.972376 0.310221 0.394138
268 1 0.985912 0.310221 0.394138
70 2 0.0877138 0.594482 0.308414
104 2 0.194883 0.594482 0.479862
167 2 0.0259603 0.532728 0.479862
223 2 0.0259603 0.425559 0.308414
380 1 0.141298 0.479144 0.394138
133 2 0.256636 0.532728 0.308414
176 2 0.363806 0.532728 0.479862
194 2 0.256636 0.425559 0.479862
235 2 0.363806 0.425559 0.308414
82 2 0.425559 0.594482 0.308414
113 2 0.532728 0.594482 0.479862
145 2 0.594482 0.532728 0.308414
203 2 0.594482 0.425559 0.479862
389 1 0.479144 0.479144 0.394138
94 2 0.763404 0.594482 0.308414
185 2 0.701651 0.532728 0.479862
247 2 0.701651 0.425559 0.308414
122 2 0.870574 0.594482 0.479862
157 2 0.932327 0.532728 0.308414
212 2 0.932327 0.425559 0.479862
398 1 0.816989 0.479144 0.394138
8 2 0.0877138 0.701651 0.479862
38 2 0.194883 0.701651 0.308414
227 2 0.0259603 0.763404 0.308414
197 2 0.256636 0.763404 0.479862
239 2 0.363806 0.763404 0.308414
287 1 0.310221 0.648066 0.394138
17 2 0.425559 0.701651 0.479862
50 2 0.532728 0.701651 0.308414
206 2 0.594482 0.763404 0.479862
26 2 0.763404 0.701651 0.479862
251 2 0.701651 0.763404 0.308414
299 1 0.648066 0.648066 0.394138
62 2 0.870574 0.701651 0.308414
215 2 0.932327 0.763404 0.479862
273 1 0.972376 0.648066 0.394138
274 1 0.985912 0.648066 0.394138
74 2 0.0877138 0.932327 0.308414
107 2 0.194883 0.932327 0.479862
170 2 0.0259603 0.870574 0.479862
383 1 0.141298 0.816989 0.394138
137 2 0.256636 0.870574 0.308414
179 2 0.363806 0.870574 0.479862
279 1 0.310221 0.972376 0.394138
280 1 0.310221 0.985912 0.394138
86 2 0.425559 0.932327 0.308414
116 2 0.532728 0.932327 0.479862
149 2 0.594482 0.870574 0.308414
392 1 0.479144 0.816989 0.394138
98 2 0.763404 0.932327 0.308414
188 2 0.701651 0.870574 0.479862
291 1 0.648066 0.972376 0.394138
292 1 0.648066 0.985912 0.394138
125 2 0.870574 0.932327 0.479862
161 2 0.932327 0.870574 0.308414
257 1 0.972376 0.972376 0.394138
258 1 0.972376 0.985912 0.394138
259 1 0.985912 0.972376 0.394138
260 1 0.985912 0.985912 0.394138
401 1 0.816989 0.816989 0.394138
31 2 0.194883 0.0259603 0.65131
220 2 0.0259603 0.0877138 0.65131
350 1 0.141298 0.141298 0.565586
378 1 0.141298 0.141298 0.737034
130 2 0.256636 0.194883 0.65131
232 2 0.363806 0.0877138 0.65131
43 2 0.532728 0.0259603 0.65131
142 2 0.594482 0.194883 0.65131
359 1 0.479144 0.141298 0.565586
387 1 0.479144 0.141298 0.737034
244 2 0.701651 0.0877138 0.65131
55 2 0.870574 0.0259603 0.65131
154 2 0.932327 0.194883 0.65131
368 1 0.816989 0.141298 0.565586
396 1 0.816989 0.141298 0.737034
35 2 0.194883 0.363806 0.65131
67 2 0.0877138 0.256636 0.65131
285 1 0.310221 0.310221 0.737034
332 1 0.310221 0.310221 0.565586
47 2 0.532728 0.363806 0.65131
79 2 0.425559 0.256636 0.65131
91 2 0.763404 0.256636 0.65131
297 1 0.648066 0.310221 0.737034
344 1 0.648066 0.310221 0.565586
59 2 0.870574 0.363806 0.65131
269 1 0.972376 0.310221 0.737034
270 1 0.985912 0.310221 0.737034
315 1 0.972376 0.310221 0.565586
316 1 0.985912 0.310221 0.565586
71 2 0.0877138 0.594482 0.65131
224 2 0.0259603 0.425559 0.65131
353 1 0.141298 0.479144 0.565586
381 1 0.141298 0.479144 0.737034
134 2 0.256636 0.532728 0.65131
236 2 0.363806 0.425559 0.65131
83 2 0.425559 0.594482 0.65131
146 2 0.594482 0.532728 0.65131
362 1 0.479144 0.479144 0.565586
390 1 0.479144 0.479144 0.737034
95 2 0.763404 0.594482 0.65131
248 2 0.701651 0.425559 0.65131
158 2 0.932327 0.532728 0.65131
371 1 0.816989 0.479144 0.565586
399 1 0.816989 0.479144 0.737034
39 2 0.194883 0.701651 0.65131
228 2 0.0259603 0.763404 0.65131
240 2 0.363806 0.763404 0.65131
288 1 0.310221 0.648066 0.737034
335 1 0.310221 0.648066 0.565586
51 2 0.532728 0.701651 0.65131
252 2 0.701651 0.763404 0.65131
300 1 0.648066 0.648066 0.737034
347 1 0.648066 0.648066 0.565586
63 2 0.870574 0.701651 0.65131
275 1 0.972376 0.648066 0.737034
276 1 0.985912 0.648066 0.737034
321 1 0.972376 0.648066 0.565586
322 1 0.985912 0.648066 0.565586
75 2 0.0877138 0.932327 0.65131
356 1 0.141298 0.816989 0.565586
384 1 0.141298 0.816989 0.737034
138 2 0.256636 0.870574 0.65131
281 1 0.310221 0.972376 0.737034
282 1 0.310221 0.985912 0.737034
327 1 0.310221 0.972376 0.565586
328 1 0.310221 0.985912 0.565586
87 2 0.425559 0.932327 0.65131
150 2 0.594482 0.870574 0.65131
365 1 0.479144 0.816989 0.565586
393 1 0.479144 0.816989 0.737034
99 2 0.763404 0.932327 0.65131
293 1 0.648066 0.972376 0.737034
294 1 0.648066 0.985912 0.737034
339 1 0.648066 0.972376 0.565586
340 1 0.648066 0.985912 0.565586
162 2 0.932327 0.870574 0.65131
261 1 0.972376 0.972376 0.737034
262 1 0.972376 0.985912 0.737034
263 1 0.985912 0.972376 0.737034
264 1 0.985912 0.985912 0.737034
305 1 0.972376 0.972376 0.565586
306 1 0.972376 0.985912 0.565586
307 1 0.985912 0.972376 0.565586
308 1 0.985912 0.985912 0.565586
374 1 0.816989 0.816989 0.565586
402 1 0.816989 0.816989 0.737034
3 2 0.0877138 0.0259603 0.822759
28 2 0.194883 0.0259603 0.965517
29 2 0.194883 0.0259603 0.994207
165 2 0.0259603 0.194883 0.822759
217 2 0.0259603 0.0877138 0.965517
218 2 0.0259603 0.0877138 0.994207
351 1 0.141298 0.141298 0.908483
127 2 0.256636 0.194883 0.965517
128 2 0.256636 0.194883 0.994207
174 2 0.363806 0.194883 0.822759
192 2 0.256636 0.0877138 0.822759
229 2 0.363806 0.0877138 0.965517
230 2 0.363806 0.0877138 0.994207
12 2 0.425559 0.0259603 0.822759
40 2 0.532728 0.0259603 0.965517
41 2 0.532728 0.0259603 0.994207
139 2 0.594482 0.194883 0.965517
140 2 0.594482 0.194883 0.994207
201 2 0.594482 0.0877138 0.822759
360 1 0.479144 0.141298 0.908483
21 2 0.763404 0.0259603 0.822759
183 2 0.701651 0.194883 0.822759
241 2 0.701651 0.0877138 0.965517
242 2 0.701651 0.0877138 0.994207
52 2 0.870574 0.0259603 0.965517
53 2 0.870574 0.0259603 0.994207
151 2 0.932327 0.194883 0.965517
152 2 0.932327 0.194883 0.994207
210 2 0.932327 0.0877138 0.822759
369 1 0.816989 0.141298 0.908483
6 2 0.0877138 0.363806 0.822759
32 2 0.194883 0.363806 0.965517
33 2 0.194883 0.363806 0.994207
64 2 0.0877138 0.256636 0.965517
65 2 0.0877138 0.256636 0.994207
102 2 0.194883 0.256636 0.822759
333 1 0.310221 0.310221 0.908483
15 2 0.425559 0.363806 0.822759
44 2 0.532728 0.363806 0.965517
45 2 0.532728 0.363806 0.994207
76 2 0.425559 0.256636 0.965517
77 2 0.425559 0.256636 0.994207
111 2 0.532728 0.256636 0.822759
24 2 0.763404 0.363806 0.822759
88 2 0.763404 0.256636 0.965517
89 2 0.763404 0.256636 0.994207
345 1 0.648066 0.310221 0.908483
56 2 0.870574 0.363806 0.965517
57 2 0.870574 0.363806 0.994207
120 2 0.870574 0.256636 0.822759
317 1 0.972376 0.310221 0.908483
318 1 0.985912 0.310221 0.908483
68 2 0.0877138 0.594482 0.965517
69 2 0.0877138 0.594482 0.994207
105 2 0.194883 0.594482 0.822759
168 2 0.0259603 0.532728 0.822759
221 2 0.0259603 0.425559 0.965517
222 2 0.0259603 0.425559 0.994207
354 1 0.141298 0.479144 0.908483
131 2 0.256636 0.532728 0.965517
132 2 0.256636 0.532728 0.994207
177 2 0.363806 0.532728 0.822759
195 2 0.256636 0.425559 0.822759
233 2 0.363806 0.425559 0.965517
234 2 0.363806 0.425559 0.994207
80 2 0.425559 0.594482 0.965517
81 2 0.425559 0.594482 0.994207
114 2 0.532728 0.594482 0.822759
143 2 0.594482 0.532728 0.965517
144 2 0.594482 0.532728 0.994207
204 2 0.594482 0.425559 0.822759
363 1 0.479144 0.479144 0.908483
92 2 0.763404 0.594482 0.965517
93 2 0.763404 0.594482 0.994207
186 2 0.701651 0.532728 0.822759
245 2 0.701651 0.425559 0.965517
246 2 0.701651 0.425559 0.994207
123 2 0.870574 0.594482 0.822759
155 2 0.932327 0.532728 0.965517
156 2 0.932327 0.532728 0.994207
213 2 0.932327 0.425559 0.822759
372 1 0.816989 0.479144 0.908483
9 2 0.0877138 0.701651 0.822759
36 2 0.194883 0.701651 0.965517
37 2 0.194883 0.701651 0.994207
225 2 0.0259603 0.763404 0.965517
226 2 0.0259603 0.763404 0.994207
198 2 0.256636 0.763404 0.822759
237 2 0.363806 0.763404 0.965517
238 2 0.363806 0.763404 0.994207
336 1 0.310221 0.648066 0.908483
18 2 0.425559 0.701651 0.822759
48 2 0.532728 0.701651 0.965517
49 2 0.532728 0.701651 0.994207
207 2 0.594482 0.763404 0.822759
27 2 0.763404 0.701651 0.822759
249 2 0.701651 0.763404 0.965517
250 2 0.701651 0.763404 0.994207
348 1 0.648066 0.648066 0.908483
60 2 0.870574 0.701651 0.965517
61 2 0.870574 0.701651 0.994207
216 2 0.932327 0.763404 0.822759
323 1 0.972376 0.648066 0.908483
324 1 0.985912 0.648066 0.908483
72 2 0.0877138 0.932327 0.965517
73 2 0.0877138 0.932327 0.994207
108 2 0.194883 0.932327 0.822759
171 2 0.0259603 0.870574 0.822759
357 1 0.141298 0.816989 0.908483
135 2 0.256636 0.870574 0.965517
136 2 0.256636 0.870574 0.994207
180 2 0.363806 0.870574 0.822759
329 1 0.310221 0.972376 0.908483
330 1 0.310221 0.985912 0.908483
84 2 0.425559 0.932327 0.965517
85 2 0.425559 0.932327 0.994207
117 2 0.532728 0.932327 0.822759
147 2 0.594482 0.870574 0.965517
148 2 0.594482 0.870574 0.994207
366 1 0.479144 0.816989 0.908483
96 2 0.763404 0.932327 0.965517
97 2 0.763404 0.932327 0.994207
189 2 0.701651 0.870574 0.822759
341 1 0.648066 0.972376 0.908483
342 1 0.648066 0.985912 0.908483
126 2 0.870574 0.932327 0.822759
159 2 0.932327 0.870574 0.965517
160 2 0.932327 0.870574 0.994207
309 1 0.972376 0.972376 0.908483
310 1 0.972376 0.985912 0.908483
311 1 0.985912 0.972376 0.908483
312 1 0.985912 0.985912 0.908483
375 1 0.816989 0.816989 0.908483
ITEM: TIMESTEP
100
ITEM: NUMBER OF ATOMS
402
ITEM: BOX BOUNDS pp pp pp
5.0000000000000000e-01 1.8600000000000001e+01
5.0000000000000000e-01 1.8600000000000001e+01
5.0000000000000000e-01 1.5000000000000000e+01
ITEM: ATOMS id type xs ys zs
1 2 0.138858 0.0504678 0.210304
163 2 0.00492887 0.252192 0.18894
349 1 0.136446 0.177981 0.203075
376 1 0.179922 0.101905 0.0678974
172 2 0.366612 0.193461 0.21626
190 2 0.282232 0.0809598 0.155883
10 2 0.422368 0.0193533 0.204777
199 2 0.596439 0.123471 0.164903
358 1 0.47045 0.136402 0.177831
385 1 0.531289 0.145883 0.0428502
19 2 0.719327 0.0244174 0.164077
181 2 0.658084 0.262533 0.233488
208 2 0.91106 0.132163 0.195497
367 1 0.781789 0.151343 0.201554
394 1 0.827082 0.247948 0.0206527
4 2 0.117349 0.358194 0.174365
100 2 0.233169 0.259796 0.198648
283 1 0.335602 0.302796 0.0964087
331 1 0.329175 0.304264 0.277996
13 2 0.410271 0.349643 0.19741
109 2 0.510389 0.239425 0.232324
22 2 0.761943 0.384908 0.245635
295 1 0.627338 0.399509 0.0128978
343 1 0.652613 0.369937 0.291114
118 2 0.845164 0.274701 0.155637
265 1 0.925769 0.345392 0.0637584
266 1 0.0433221 0.316638 0.0647973
313 1 0.908207 0.23743 0.27367
314 1 0.0282071 0.34241 0.28193
103 2 0.196131 0.573961 0.245034
166 2 0.0044139 0.553588 0.191872
352 1 0.152701 0.472469 0.19877
379 1 0.145073 0.407814 0.0489479
175 2 0.337263 0.524224 0.181941
193 2 0.255618 0.405618 0.238563
112 2 0.548851 0.609451 0.197524
202 2 0.620462 0.433074 0.181273
361 1 0.478943 0.479124 0.207254
388 1 0.477347 0.479989 0.0425459
184 2 0.701042 0.553009 0.238966
121 2 0.83938 0.60168 0.175335
211 2 0.956267 0.404488 0.18959
370 1 0.802591 0.488747 0.20087
397 1 0.811572 0.552392 0.048715
7 2 0.112633 0.684824 0.155803
196 2 0.30014 0.696575 0.233505
286 1 0.331412 0.55847 0.0138331
334 1 0.305562 0.589016 0.29019
16 2 0.447288 0.718929 0.232664
205 2 0.591173 0.76534 0.217593
25 2 0.724092 0.700058 0.198807
298 1 0.619207 0.655248 0.0935515
346 1 0.629228 0.654039 0.278769
214 2 0.952927 0.706458 0.187892
271 1 0.914214 0.643585 0.0672745
272 1 0.0309828 0.61389 0.0662032
319 1 0.930208 0.616056 0.282121
320 1 0.0487604 0.721064 0.273528
106 2 0.23851 0.933996 0.163773
169 2 0.0469509 0.826161 0.195148
355 1 0.176642 0.807431 0.201658
382 1 0.132215 0.710254 0.020244
178 2 0.36166 0.835733 0.164106
277 1 0.278276 0.893804 0.0304695
278 1 0.315661 0.0215334 0.0409553
325 1 0.338108 0.942299 0.254693
326 1 0.251503 0.0308417 0.278433
115 2 0.535423 0.939678 0.203246
364 1 0.487793 0.821356 0.177423
391 1 0.427034 0.814421 0.0422452
187 2 0.676497 0.876317 0.156485
289 1 0.644139 0.937685 0.0422644
290 1 0.681015 0.0650363 0.0302168
337 1 0.70698 0.927704 0.278114
338 1 0.620009 0.0158931 0.254916
124 2 0.819743 0.908265 0.209831
253 1 0.931268 0.950025 0.0425265
254 1 0.935066 0.090731 0.0507672
255 1 0.0226709 0.86751 0.0503902
256 1 0.0263378 0.00769841 0.0425406
301 1 0.958652 0.921396 0.200102
302 1 0.881153 0.0124062 0.169775
303 1 0.0774438 0.945795 0.16942
304 1 -0.00032354 0.0365827 0.200505
373 1 0.821273 0.780853 0.202237
400 1 0.778542 0.858111 0.0671917
2 2 0.0239073 0.0627049 0.480791
30 2 0.164283 0.0471268 0.394059
164 2 0.0521314 0.191661 0.48415
219 2 0.0432191 0.135688 0.301283
377 1 0.138364 0.162801 0.392072
129 2 0.244212 0.158871 0.326633
173 2 0.335473 0.180588 0.488129
191 2 0.296151 0.0380188 0.475565
231 2 0.36489 0.085561 0.33566
11 2 0.464348 0.0583928 0.48346
42 2 0.522649 0.0832254 0.309104
141 2 0.569147 0.209414 0.392429
200 2 0.616033 0.0715221 0.474632
386 1 0.454882 0.154387 0.400314
20 2 0.76669 0.0523243 0.475669
182 2 0.718896 0.196282 0.472615
243 2 0.683543 0.123238 0.309293
54 2 0.821745 0.046986 0.295751
153 2 0.904825 0.165801 0.390017
209 2 0.895544 0.0239001 0.478831
395 1 0.791242 0.139815 0.382246
5 2 0.0714891 0.342243 0.485104
34 2 0.184907 0.393886 0.389287
66 2 0.120575 0.270024 0.323202
101 2 0.196202 0.239182 0.487041
284 1 0.252279 0.281275 0.371616
14 2 0.472225 0.379827 0.462637
46 2 0.53901 0.364823 0.314016
78 2 0.415588 0.264698 0.372511
110 2 0.605343 0.323105 0.502019
23 2 0.778101 0.335982 0.4715
90 2 0.787696 0.244864 0.317864
296 1 0.674353 0.286299 0.386595
58 2 0.890375 0.350533 0.325957
119 2 0.920038 0.296348 0.483931
267 1 0.986912 0.403165 0.403364
268 1 -0.00092145 0.250488 0.373972
70 2 0.0688877 0.608512 0.327626
104 2 0.180963 0.622904 0.471699
167 2 0.0582138 0.494073 0.476476
223 2 0.0693448 0.456226 0.302255
380 1 0.156787 0.516705 0.38585
133 2 0.273342 0.517054 0.394366
176 2 0.380006 0.48614 0.496898
194 2 0.323137 0.353116 0.458137
235 2 0.380357 0.437579 0.315726
82 2 0.419035 0.593046 0.313974
113 2 0.486153 0.578603 0.462495
145 2 0.576985 0.519753 0.315158
203 2 0.577976 0.472279 0.496808
389 1 0.478663 0.479072 0.367201
94 2 0.774163 0.564456 0.388328
185 2 0.635559 0.60499 0.45687
247 2 0.685138 0.441707 0.39525
122 2 0.886941 0.616024 0.485062
157 2 0.889567 0.501375 0.299707
212 2 0.899633 0.464701 0.475916
398 1 0.801778 0.442222 0.385026
8 2 0.0379089 0.662309 0.484576
38 2 0.170789 0.713776 0.317566
227 2 0.053295 0.792348 0.389778
197 2 0.23931 0.762111 0.472618
239 2 0.38922 0.749433 0.392518
287 1 0.284309 0.672353 0.386475
17 2 0.353137 0.635269 0.501642
50 2 0.541965 0.69349 0.373073
206 2 0.622506 0.777972 0.488029
26 2 0.762078 0.718765 0.487451
251 2 0.713454 0.799813 0.328415
299 1 0.706893 0.676999 0.371665
62 2 0.837323 0.689174 0.322937
215 2 0.905997 0.766779 0.483929
273 1 0.958805 0.707132 0.37437
274 1 0.971189 0.554777 0.40232
74 2 0.136337 0.911489 0.295883
107 2 0.191591 0.906151 0.475716
170 2 0.0627598 0.934384 0.478882
383 1 0.166967 0.818518 0.382327
137 2 0.274846 0.835478 0.30946
179 2 0.342397 0.886789 0.474878
279 1 0.265936 0.948457 0.376848
280 1 0.406878 0.973433 0.390305
86 2 0.435749 0.875346 0.308862
116 2 0.493719 0.89983 0.483568
149 2 0.593159 0.874251 0.33518
392 1 0.503928 0.804266 0.39989
98 2 0.794059 0.911476 0.393815
188 2 0.662136 0.920297 0.475803
291 1 0.550924 0.985347 0.390527
292 1 0.692268 0.00996445 0.376862
125 2 0.934372 0.895534 0.481002
161 2 0.91486 0.822862 0.301091
257 1 0.898712 0.952591 0.338874
258 1 0.947861 0.0633214 0.340665
259 1 0.010466 0.894969 0.340743
260 1 0.0596613 0.00579758 0.338895
401 1 0.819953 0.795791 0.392149
31 2 0.165877 0.0533773 0.569886
220 2 0.0469816 0.13594 0.66364
350 1 0.139865 0.167009 0.577501
378 1 0.151306 0.176307 0.758207
130 2 0.244719 0.170709 0.642105
232 2 0.350095 0.0685937 0.632994
43 2 0.501751 0.0687977 0.658646
142 2 0.564538 0.184479 0.571058
359 1 0.441932 0.156409 0.574288
387 1 0.487136 0.153915 0.759865
244 2 0.688669 0.120658 0.636788
55 2 0.822651 0.0432871 0.658444
154 2 0.911314 0.164357 0.565764
368 1 0.795622 0.138443 0.567746
396 1 0.780534 0.136719 0.756871
35 2 0.209187 0.388873 0.567761
67 2 0.123062 0.274451 0.650346
285 1 0.370053 0.305522 0.668514
332 1 0.286 0.284216 0.573151
47 2 0.520225 0.380547 0.644055
79 2 0.441712 0.272915 0.564502
91 2 0.799484 0.244957 0.631644
297 1 0.654017 0.329064 0.681529
344 1 0.676848 0.251899 0.588187
59 2 0.874494 0.365571 0.625159
269 1 0.927572 0.251203 0.68115
270 1 0.0148781 0.338471 0.705193
315 1 0.985166 0.407453 0.568918
316 1 0.00994291 0.26641 0.582792
71 2 0.0865655 0.593637 0.623446
224 2 0.0826395 0.435467 0.650579
353 1 0.154317 0.502703 0.55965
381 1 0.135815 0.487345 0.781058
134 2 0.264748 0.542334 0.586884
236 2 0.36521 0.419156 0.645613
83 2 0.437916 0.577741 0.643308
146 2 0.593488 0.539108 0.645352
362 1 0.479102 0.478955 0.592637
390 1 0.479637 0.479269 0.752123
95 2 0.749148 0.569022 0.566913
248 2 0.693245 0.416081 0.587121
158 2 0.874803 0.522464 0.650838
371 1 0.803917 0.454013 0.559457
399 1 0.820901 0.469854 0.782924
39 2 0.158664 0.714298 0.633052
228 2 0.0470245 0.794225 0.565708
240 2 0.394218 0.773212 0.5709
288 1 0.304439 0.628918 0.681582
335 1 0.281258 0.706066 0.588175
51 2 0.518087 0.684571 0.565748
252 2 0.713555 0.787596 0.641787
300 1 0.589427 0.652243 0.67079
347 1 0.671528 0.674079 0.573116
63 2 0.835613 0.683365 0.650553
275 1 0.94139 0.620556 0.704668
276 1 0.0309075 0.706729 0.681532
321 1 0.948528 0.692916 0.582965
322 1 0.973544 0.551623 0.569858
75 2 0.135651 0.914903 0.658626
356 1 0.162698 0.819949 0.567602
384 1 0.177843 0.821754 0.757256
138 2 0.269717 0.837423 0.636466
281 1 0.342324 0.930007 0.677569
282 1 0.237348 0.0492542 0.686252
327 1 0.250808 0.958961 0.585567
328 1 0.403347 0.971349 0.557185
87 2 0.456746 0.889043 0.658901
150 2 0.607834 0.889906 0.633128
365 1 0.51618 0.801309 0.574156
393 1 0.470952 0.80381 0.760119
99 2 0.792521 0.90484 0.569737
293 1 0.720835 0.908853 0.685783
294 1 0.615956 0.0278306 0.677692
339 1 0.554997 0.986983 0.556617
340 1 0.707685 -0.000686143 0.585626
162 2 0.911553 0.821519 0.66432
261 1 0.945825 0.881 0.79051
262 1 0.921521 -0.000375407 0.759324
263 1 0.0367063 0.958578 0.75961
264 1 0.0124938 0.0772745 0.790168
305 1 0.89498 0.94776 0.619116
306 1 0.952447 0.0596361 0.620684
307 1 0.00565712 0.89871 0.621007
308 1 0.0632834 0.010305 0.619046
374 1 0.818641 0.791291 0.577573
402 1 0.807312 0.781556 0.758164
3 2 0.132208 0.0469304 0.764498
28 2 0.230286 0.0105234 0.938453
29 2 0.134758 0.972025 0.0446725
165 2 0.0245772 0.238153 0.794731
217 2 0.129319 0.132551 0.920856
218 2 0.0486299 0.116133 0.0950538
351 1 0.247808 0.131416 0.939248
127 2 0.327322 0.243411 0.888912
128 2 0.290961 0.190483 0.0494662
174 2 0.384751 0.196246 0.714404
192 2 0.27401 0.112979 0.803968
229 2 0.41023 0.124888 0.879628
230 2 0.414172 0.0943806 0.0471042
12 2 0.404574 0.00302742 0.768672
40 2 0.517441 0.0335376 0.90955
41 2 0.561855 0.0190214 0.0636042
139 2 0.630452 0.228494 0.923952
140 2 0.580538 0.268799 0.0743027
201 2 0.600665 0.1179 0.785087
360 1 0.551303 0.145374 0.910989
21 2 0.706212 0.00489497 0.771618
183 2 0.698934 0.233477 0.761035
241 2 0.72851 0.126316 0.903809
242 2 0.706731 0.182619 0.0824756
52 2 0.841599 0.0485709 0.864521
53 2 0.825316 0.130018 0.0389461
151 2 0.986508 0.134722 0.915211
152 2 0.947653 0.229659 0.0226589
210 2 0.908036 0.138569 0.749426
369 1 0.857196 0.179866 0.891845
6 2 0.123844 0.361628 0.793676
32 2 0.268719 0.377287 0.885262
33 2 0.227814 0.328197 0.035438
64 2 0.182287 0.251263 0.877364
65 2 0.126278 0.229756 0.0563149
102 2 0.262639 0.300067 0.726235
333 1 0.400028 0.331379 0.946879
15 2 0.43334 0.337579 0.778287
44 2 0.533423 0.371301 0.916795
45 2 0.513429 0.385218 0.0986858
76 2 0.486114 0.238716 0.88495
77 2 0.437242 0.243273 0.0527657
111 2 0.55269 0.256373 0.721166
24 2 0.764924 0.366709 0.742418
88 2 0.767705 0.290638 0.909969
89 2 0.715429 0.327349 0.0710526
345 1 0.655157 0.336596 0.864242
56 2 0.865236 0.411684 0.914366
57 2 0.83339 0.412655 0.0820446
120 2 0.876416 0.281876 0.802489
317 1 0.936758 0.312172 0.917615
318 1 0.0645218 0.274698 0.929372
68 2 0.094544 0.54277 0.911074
69 2 0.125184 0.549932 0.0780487
105 2 0.19368 0.591285 0.74353
168 2 0.019469 0.537214 0.752968
221 2 0.0192962 0.392967 0.896394
222 2 0.0332366 0.442343 0.0484754
354 1 0.145954 0.425738 0.916481
131 2 0.24354 0.520183 0.907207
132 2 0.238034 0.472754 0.0751129
177 2 0.350121 0.548127 0.762264
195 2 0.23984 0.447978 0.727422
233 2 0.385006 0.444402 0.860417
234 2 0.370106 0.424822 0.0427361
80 2 0.425415 0.586798 0.918355
81 2 0.443767 0.57465 0.101662
114 2 0.524102 0.619797 0.778029
143 2 0.576165 0.514493 0.859354
144 2 0.585743 0.532905 0.0422482
204 2 0.608935 0.409924 0.761991
363 1 0.480743 0.479524 0.914715
92 2 0.692601 0.580324 0.886419
93 2 0.727981 0.630942 0.0384245
186 2 0.719258 0.511064 0.72728
245 2 0.716565 0.436884 0.90687
246 2 0.718484 0.486074 0.0743824
123 2 0.836634 0.596404 0.796895
155 2 0.941605 0.556127 0.895301
156 2 0.92371 0.520327 0.0523045
213 2 0.939748 0.423927 0.758173
372 1 0.81484 0.529608 0.917787
9 2 0.081143 0.676066 0.804377
36 2 0.190337 0.666384 0.910505
37 2 0.244211 0.631389 0.0716627
225 2 0.971729 0.823687 0.915204
226 2 0.0109178 0.727432 0.0196643
198 2 0.259048 0.724607 0.761081
237 2 0.327864 0.728978 0.922704
238 2 0.377749 0.691173 0.0737076
336 1 0.303129 0.620712 0.864351
18 2 0.405453 0.701792 0.721068
48 2 0.472873 0.718774 0.884971
49 2 0.52008 0.716583 0.0526274
207 2 0.573816 0.761776 0.714742
27 2 0.69714 0.658158 0.726108
249 2 0.631282 0.714151 0.887666
250 2 0.666444 0.768303 0.0492
348 1 0.559038 0.627168 0.945977
60 2 0.776025 0.707112 0.877434
61 2 0.83108 0.728639 0.0552309
216 2 0.934392 0.71918 0.79725
323 1 0.893097 0.677211 0.929377
324 1 0.0202515 0.640477 0.918089
72 2 0.11673 0.909625 0.865033
73 2 0.13235 0.829078 0.0391798
108 2 0.252036 0.95292 0.771303
171 2 0.05033 0.819477 0.749688
357 1 0.10156 0.778395 0.892033
135 2 0.2298 0.831371 0.904293
136 2 0.251022 0.776221 0.0822193
180 2 0.357305 0.839984 0.784703
329 1 0.315656 0.914276 0.893471
330 1 0.344872 0.0314316 0.894236
84 2 0.439848 0.923786 0.90922
85 2 0.397808 0.941031 0.0641558
117 2 0.553739 0.954926 0.769561
147 2 0.547957 0.83289 0.879849
148 2 0.544877 0.8655 0.0468623
366 1 0.407189 0.811779 0.910327
96 2 0.728823 0.946585 0.938536
97 2 0.823502 0.988102 0.0447833
189 2 0.684141 0.845324 0.803899
341 1 0.613886 0.926073 0.895196
342 1 0.64232 0.0431904 0.894066
126 2 0.826078 0.91112 0.764283
159 2 0.829658 0.82506 0.92029
160 2 0.909795 0.8411 0.0948612
309 1 0.866673 0.935393 0.909372
310 1 0.950149 0.0263396 0.916915
311 1 0.00795949 0.931681 0.917038
312 1 0.0907319 0.0228776 0.909159
375 1 0.710653 0.825271 0.93884
ITEM: TIMESTEP
200
ITEM: NUMBER OF ATOMS
402
ITEM: BOX BOUNDS pp pp pp
5.0000000000000000e-01 1.8600000000000001e+01
5.0000000000000000e-01 1.8600000000000001e+01
5.0000000000000000e-01 1.5000000000000000e+01
ITEM: ATOMS id type xs ys zs
1 2 0.171235 0.111092 0.163483
163 2 0.000393667 0.264572 0.209625
349 1 0.105551 0.215282 0.163632
376 1 0.133935 0.143088 0.0254046
172 2 0.361095 0.168322 0.171811
190 2 0.308502 0.0466785 0.101055
10 2 0.374975 0.0402437 0.276809
199 2 0.668764 0.153132 0.134006
358 1 0.4568 0.0864348 0.183156
385 1 0.564607 0.17279 0.0526061
19 2 0.715875 0.00975193 0.181166
181 2 0.637759 0.280737 0.242087
208 2 0.890133 0.159927 0.182446
367 1 0.763439 0.160154 0.224895
394 1 0.856921 0.237392 0.0530072
4 2 0.1405 0.370781 0.145802
100 2 0.226463 0.247113 0.170459
283 1 0.325912 0.243024 0.0574272
331 1 0.330185 0.247149 0.277309
13 2 0.348683 0.334999 0.156421
109 2 0.523583 0.19127 0.193474
22 2 0.766962 0.391945 0.268114
295 1 0.608189 0.397837 0.0471654
343 1 0.662373 0.43316 0.324149
118 2 0.87818 0.344178 0.126277
265 1 0.898453 0.34738 0.966271
266 1 0.0314722 0.357281 0.0701962
313 1 0.88237 0.265933 0.244105
314 1 0.11663 0.371591 0.322245
103 2 0.1991 0.590636 0.255217
166 2 0.993899 0.556427 0.153684
352 1 0.190159 0.470781 0.224025
379 1 0.124141 0.396911 0.982427
175 2 0.292529 0.473267 0.15564
193 2 0.242659 0.371546 0.279575
112 2 0.561429 0.595195 0.189444
202 2 0.628771 0.440194 0.184231
361 1 0.515943 0.453492 0.24232
388 1 0.486035 0.445069 0.0283559
184 2 0.709384 0.55055 0.282529
121 2 0.842271 0.611519 0.189883
211 2 0.999164 0.406025 0.204417
370 1 0.816234 0.505037 0.275032
397 1 0.821906 0.549016 0.019485
7 2 0.104234 0.66896 0.142168
196 2 0.323931 0.702749 0.232952
286 1 0.335906 0.523333 0.0259548
334 1 0.331139 0.582473 0.210354
16 2 0.461668 0.735902 0.214391
205 2 0.604279 0.766687 0.194329
25 2 0.720754 0.690292 0.212489
298 1 0.666216 0.659591 0.0869974
346 1 0.625618 0.650661 0.297933
214 2 0.964194 0.702358 0.177132
271 1 0.909777 0.722494 0.0494371
272 1 0.0529405 0.612824 0.0302139
319 1 0.934765 0.625656 0.284103
320 1 0.0467035 0.751456 0.275989
106 2 0.198498 0.961337 0.179344
169 2 0.0675177 0.812164 0.141222
355 1 0.174146 0.850448 0.188979
382 1 0.132411 0.758994 0.0194049
178 2 0.363504 0.836215 0.113938
277 1 0.270279 0.827537 0.0102376
278 1 0.274805 0.937005 0.0602596
325 1 0.338913 0.938228 0.194116
326 1 0.256312 0.0577445 0.241597
115 2 0.584542 0.955988 0.246049
364 1 0.506322 0.855179 0.195799
391 1 0.42806 0.738941 0.0698315
187 2 0.711054 0.869036 0.183085
289 1 0.599214 0.902591 0.105066
290 1 0.703906 0.0525352 0.0346959
337 1 0.662413 0.885043 0.31749
338 1 0.609512 0.0732324 0.217527
124 2 0.85973 0.943323 0.203638
253 1 0.895263 0.934793 0.923636
254 1 0.900838 0.0923612 0.0572438
255 1 0.0659098 0.931567 0.0915986
256 1 0.948968 0.976984 0.0881114
301 1 0.992263 0.920939 0.216523
302 1 0.820534 0.0539674 0.161273
303 1 0.0795181 0.0230883 0.184221
304 1 0.949776 0.0477024 0.208532
373 1 0.816274 0.833461 0.277534
400 1 0.796581 0.879799 0.0706007
2 2 0.010933 0.0728361 0.46167