ITEM: TIMESTEP
0
ITEM: NUMBER OF ATOMS
96
ITEM: BOX BOUNDS pp pp pp
-5.2711189999999997e+00 1.4128881000000000e+01
-5.2711189999999997e+00 1.4128881000000000e+01
-8.1525440000000007e+00 2.3347456000000001e+01
ITEM: ATOMS id type xs ys zs
33 1 0.271707 0.271707 0.258811
49 1 0.356474 0.314091 0.321192
37 1 0.521192 0.271707 0.258811
65 1 0.478808 0.314091 0.321192
53 1 0.605959 0.314091 0.321192
69 1 0.728293 0.314091 0.321192
1 2 0.354869 0.43803 0.27548
35 1 0.271707 0.521192 0.258811
51 1 0.356474 0.563575 0.321192
39 1 0.521192 0.521192 0.258811
67 1 0.478808 0.563575 0.321192
81 1 0.478808 0.436425 0.321192
5 2 0.604353 0.43803 0.27548
55 1 0.605959 0.563575 0.321192
71 1 0.728293 0.563575 0.321192
85 1 0.728293 0.436425 0.321192
3 2 0.354869 0.687515 0.27548
83 1 0.478808 0.685909 0.321192
7 2 0.604353 0.687515 0.27548
87 1 0.728293 0.685909 0.321192
41 1 0.271707 0.271707 0.383573
17 2 0.43803 0.354869 0.400242
45 1 0.521192 0.271707 0.383573
21 2 0.687515 0.354869 0.400242
25 2 0.354869 0.43803 0.366903
43 1 0.271707 0.521192 0.383573
47 1 0.521192 0.521192 0.383573
29 2 0.604353 0.43803 0.366903
27 2 0.354869 0.687515 0.366903
19 2 0.43803 0.604353 0.400242
23 2 0.687515 0.604353 0.400242
31 2 0.604353 0.687515 0.366903
34 1 0.271707 0.271707 0.508335
89 1 0.314091 0.356474 0.445954
9 2 0.43803 0.354869 0.491665
38 1 0.521192 0.271707 0.508335
93 1 0.563575 0.356474 0.445954
13 2 0.687515 0.354869 0.491665
2 2 0.354869 0.43803 0.525004
36 1 0.271707 0.521192 0.508335
73 1 0.314091 0.478808 0.445954
40 1 0.521192 0.521192 0.508335
57 1 0.436425 0.478808 0.445954
77 1 0.563575 0.478808 0.445954
6 2 0.604353 0.43803 0.525004
61 1 0.685909 0.478808 0.445954
4 2 0.354869 0.687515 0.525004
75 1 0.314091 0.728293 0.445954
91 1 0.314091 0.605959 0.445954
11 2 0.43803 0.604353 0.491665
59 1 0.436425 0.728293 0.445954
79 1 0.563575 0.728293 0.445954
95 1 0.563575 0.605959 0.445954
8 2 0.604353 0.687515 0.525004
15 2 0.687515 0.604353 0.491665
63 1 0.685909 0.728293 0.445954
42 1 0.271707 0.271707 0.633097
50 1 0.356474 0.314091 0.570716
18 2 0.43803 0.354869 0.649766
46 1 0.521192 0.271707 0.633097
66 1 0.478808 0.314091 0.570716
22 2 0.687515 0.354869 0.649766
54 1 0.605959 0.314091 0.570716
70 1 0.728293 0.314091 0.570716
26 2 0.354869 0.43803 0.616427
44 1 0.271707 0.521192 0.633097
52 1 0.356474 0.563575 0.570716
48 1 0.521192 0.521192 0.633097
68 1 0.478808 0.563575 0.570716
82 1 0.478808 0.436425 0.570716
30 2 0.604353 0.43803 0.616427
56 1 0.605959 0.563575 0.570716
72 1 0.728293 0.563575 0.570716
86 1 0.728293 0.436425 0.570716
28 2 0.354869 0.687515 0.616427
20 2 0.43803 0.604353 0.649766
84 1 0.478808 0.685909 0.570716
24 2 0.687515 0.604353 0.649766
32 2 0.604353 0.687515 0.616427
88 1 0.728293 0.685909 0.570716
90 1 0.314091 0.356474 0.695478
10 2 0.43803 0.354869 0.741189
94 1 0.563575 0.356474 0.695478
14 2 0.687515 0.354869 0.741189
74 1 0.314091 0.478808 0.695478
58 1 0.436425 0.478808 0.695478
78 1 0.563575 0.478808 0.695478
62 1 0.685909 0.478808 0.695478
76 1 0.314091 0.728293 0.695478
92 1 0.314091 0.605959 0.695478
12 2 0.43803 0.604353 0.741189
60 1 0.436425 0.728293 0.695478
80 1 0.563575 0.728293 0.695478
96 1 0.563575 0.605959 0.695478
16 2 0.687515 0.604353 0.741189
64 1 0.685909 0.728293 0.695478
ITEM: TIMESTEP
100
ITEM: NUMBER OF ATOMS
96
ITEM: BOX BOUNDS pp pp pp
-5.2711189999999997e+00 1.4128881000000000e+01
-5.2711189999999997e+00 1.4128881000000000e+01
-8.1525440000000007e+00 2.3347456000000001e+01
ITEM: ATOMS id type xs ys zs
33 1 0.323736 0.323261 0.247069
49 1 0.354445 0.296843 0.315049
37 1 0.536553 0.38031 0.242673
65 1 0.501262 0.331655 0.324666
53 1 0.615794 0.302818 0.347695
69 1 0.719114 0.357657 0.308712
1 2 0.420273 0.385682 0.27101
35 1 0.333964 0.566555 0.247556
51 1 0.362829 0.491061 0.301979
39 1 0.515686 0.592369 0.304121
67 1 0.515713 0.59202 0.304004
81 1 0.480825 0.473447 0.324339
5 2 0.607165 0.41434 0.303442
55 1 0.627654 0.545247 0.30961
71 1 0.715528 0.606008 0.325602
85 1 0.722793 0.481774 0.325745
3 2 0.3916 0.621709 0.304182
83 1 0.474691 0.725068 0.316991
7 2 0.614679 0.675957 0.30172
87 1 0.660186 0.68719 0.376752
41 1 0.316788 0.294393 0.387958
17 2 0.431501 0.282872 0.426491
45 1 0.615197 0.292848 0.421643
21 2 0.698183 0.39085 0.383527
25 2 0.391507 0.393258 0.364806
43 1 0.29615 0.619965 0.360653
47 1 0.549413 0.532706 0.36958
29 2 0.545369 0.39477 0.392174
27 2 0.3781 0.713648 0.381172
19 2 0.404497 0.549432 0.391928
23 2 0.668213 0.5533 0.391504
31 2 0.528204 0.660012 0.378143
34 1 0.283651 0.350043 0.53453
89 1 0.316336 0.28858 0.463772
9 2 0.379941 0.394814 0.486342
38 1 0.593608 0.296337 0.533394
93 1 0.519416 0.32429 0.477836
13 2 0.655036 0.379488 0.480149
2 2 0.302136 0.484309 0.561038
36 1 0.278537 0.624197 0.507192
73 1 0.313281 0.490728 0.43711
40 1 0.517759 0.526984 0.508932
57 1 0.479433 0.456574 0.451695
77 1 0.59406 0.46083 0.425303
6 2 0.525831 0.411297 0.528858
61 1 0.737252 0.47566 0.443897
4 2 0.373613 0.707653 0.504889
75 1 0.330165 0.774292 0.442998
91 1 0.311177 0.621261 0.435425
11 2 0.39004 0.554555 0.48915
59 1 0.448286 0.671726 0.444429
79 1 0.558049 0.726098 0.447089
95 1 0.524452 0.568035 0.439537
8 2 0.533575 0.654874 0.512229
15 2 0.642929 0.541957 0.490997
63 1 0.616717 0.652783 0.442957
42 1 0.335563 0.282782 0.640288
50 1 0.273541 0.376224 0.607355
18 2 0.470926 0.263195 0.654506
46 1 0.623119 0.320527 0.674899
66 1 0.495901 0.291534 0.553921
22 2 0.693482 0.381279 0.618767
54 1 0.583421 0.284377 0.607366
70 1 0.706414 0.322449 0.547845
26 2 0.397499 0.363683 0.58549
44 1 0.283943 0.58351 0.620257
52 1 0.353811 0.614745 0.564549
48 1 0.541384 0.533159 0.655802
68 1 0.427457 0.632185 0.564411
82 1 0.436888 0.506795 0.562802
30 2 0.536838 0.401754 0.63053
56 1 0.556595 0.512873 0.578843
72 1 0.729878 0.556444 0.54901
86 1 0.668611 0.451627 0.552761
28 2 0.386635 0.677604 0.63575
20 2 0.392824 0.514242 0.641724
84 1 0.453806 0.725219 0.569018
24 2 0.669099 0.537841 0.617422
32 2 0.538027 0.642454 0.612278
88 1 0.646627 0.635258 0.55969
90 1 0.371324 0.256348 0.706998
10 2 0.39614 0.378872 0.690076
94 1 0.523668 0.351113 0.712128
14 2 0.627817 0.449692 0.701998
74 1 0.367768 0.49892 0.722251
58 1 0.491237 0.469926 0.708871
78 1 0.572963 0.552548 0.74268
62 1 0.748651 0.480832 0.671847
76 1 0.389871 0.713943 0.711554
92 1 0.321439 0.597228 0.689736
12 2 0.453526 0.603096 0.712332
60 1 0.491169 0.719739 0.678925
80 1 0.608338 0.686381 0.674437
96 1 0.575539 0.640593 0.691268
16 2 0.689112 0.59555 0.703742
64 1 0.664784 0.665598 0.635663
ITEM: TIMESTEP
200
ITEM: NUMBER OF ATOMS
96
ITEM: BOX BOUNDS pp pp pp
-5.2711189999999997e+00 1.4128881000000000e+01
-5.2711189999999997e+00 1.4128881000000000e+01
-8.1525440000000007e+00 2.3347456000000001e+01
ITEM: ATOMS id type xs ys zs
33 1 0.329942 0.317378 0.240036
49 1 0.361996 0.290455 0.307065
37 1 0.54454 0.374882 0.240311
65 1 0.505079 0.332213 0.320803
53 1 0.616762 0.304896 0.347883
69 1 0.722413 0.354986 0.311508
1 2 0.42595 0.381524 0.263673
35 1 0.337192 0.570185 0.244572
51 1 0.366377 0.486836 0.294356
39 1 0.51596 0.589255 0.300592
67 1 0.515242 0.5875 0.299811
81 1 0.482589 0.470306 0.31908
5 2 0.611163 0.413472 0.301592
55 1 0.62762 0.54414 0.308755
71 1 0.713593 0.60762 0.325032
85 1 0.724379 0.484332 0.326422
3 2 0.39152 0.619193 0.304653
83 1 0.474196 0.721972 0.319787
7 2 0.611248 0.675494 0.302412
87 1 0.653216 0.685353 0.378263
41 1 0.325969 0.286365 0.379961
17 2 0.428527 0.306158 0.431753
45 1 0.619956 0.296381 0.420721
21 2 0.697811 0.3947 0.3848
25 2 0.391722 0.390076 0.355865
43 1 0.292327 0.623317 0.35932
47 1 0.547988 0.521235 0.370186
29 2 0.54405 0.398991 0.389887
27 2 0.381902 0.706241 0.385732
19 2 0.391962 0.541199 0.38933
23 2 0.664568 0.554391 0.390743
31 2 0.523313 0.646017 0.377627
34 1 0.271656 0.367246 0.557281
89 1 0.306499 0.295086 0.453339
9 2 0.354143 0.397304 0.492786
38 1 0.601717 0.301163 0.534514
93 1 0.537054 0.313727 0.475486
13 2 0.655194 0.385576 0.48064
2 2 0.296732 0.494213 0.564989
36 1 0.278407 0.632118 0.506344
73 1 0.297498 0.491638 0.438281
40 1 0.512867 0.524485 0.5066
57 1 0.465974 0.442341 0.451236
77 1 0.587611 0.464048 0.426555
6 2 0.520678 0.414646 0.526785
61 1 0.735786 0.48162 0.443894
4 2 0.380109 0.706884 0.502958
75 1 0.353722 0.78431 0.443861
91 1 0.304803 0.620402 0.434172
11 2 0.382386 0.55223 0.486529
59 1 0.477131 0.705355 0.44605
79 1 0.599115 0.671608 0.44488
95 1 0.502952 0.558615 0.438169
8 2 0.526637 0.65046 0.515261
15 2 0.637442 0.546952 0.488814
63 1 0.601844 0.654215 0.445318
42 1 0.340389 0.282918 0.637629
50 1 0.293053 0.399836 0.630328
18 2 0.476359 0.263426 0.650682
46 1 0.628885 0.321243 0.674146
66 1 0.500879 0.297299 0.557596
22 2 0.698714 0.383558 0.617831
54 1 0.592474 0.284151 0.607059
70 1 0.713202 0.328695 0.546274
26 2 0.399112 0.369486 0.586015
44 1 0.281616 0.590776 0.623289
52 1 0.350695 0.621186 0.565854
48 1 0.538319 0.530495 0.655487
68 1 0.419608 0.631945 0.567104
82 1 0.431688 0.508651 0.562297
30 2 0.541595 0.401434 0.626869
56 1 0.551495 0.515642 0.576217
72 1 0.721767 0.561887 0.549264
86 1 0.663326 0.455839 0.552857
28 2 0.383357 0.679145 0.638845
20 2 0.390616 0.513749 0.642915
84 1 0.451547 0.727112 0.57112
24 2 0.664503 0.538059 0.618764
32 2 0.532507 0.642474 0.614863
88 1 0.639477 0.634827 0.562911
90 1 0.378814 0.249415 0.702372
10 2 0.396368 0.376012 0.688602
94 1 0.526255 0.347971 0.709472
14 2 0.627301 0.44845 0.701656
74 1 0.372199 0.495642 0.724212
58 1 0.49048 0.466514 0.709199
78 1 0.572943 0.548933 0.743876
62 1 0.748394 0.482495 0.671778
76 1 0.394583 0.712964 0.715061
92 1 0.321685 0.594755 0.693261
12 2 0.454074 0.600152 0.713822
60 1 0.49032 0.71765 0.682398
80 1 0.608418 0.684513 0.675187
96 1 0.575238 0.637116 0.692544
16 2 0.689164 0.593895 0.705614
64 1 0.658077 0.664914 0.6395
ITEM: TIMESTEP
300
ITEM: NUMBER OF ATOMS
96
ITEM: BOX BOUNDS pp pp pp
-5.2711189999999997e+00 1.4128881000000000e+01
-5.2711189999999997e+00 1.4128881000000000e+01
-8.1525440000000007e+00 2.3347456000000001e+01
ITEM: ATOMS id type xs ys zs
33 1 0.336737 0.317586 0.238305
49 1 0.367092 0.290844 0.306398
37 1 0.547981 0.37783 0.23987
65 1 0.509209 0.33385 0.320759
53 1 0.619652 0.305449 0.346127
69 1 0.724193 0.355625 0.3095
1 2 0.429537 0.383533 0.264221
35 1 0.336308 0.574223 0.248878
51 1 0.369632 0.487764 0.296224
39 1 0.513415 0.589916 0.303533
67 1 0.513129 0.589788 0.303499
81 1 0.485044 0.469235 0.31953
5 2 0.613064 0.415982 0.302012
55 1 0.627365 0.547591 0.308636
71 1 0.711185 0.610688 0.326005
85 1 0.72505 0.487315 0.325786
3 2 0.389575 0.622758 0.309162
83 1 0.471996 0.72428 0.324063
7 2 0.607215 0.678351 0.30499
87 1 0.654758 0.68307 0.378645
41 1 0.346312 0.278325 0.382226
17 2 0.440649 0.315126 0.442913
45 1 0.630052 0.291107 0.417951
21 2 0.701937 0.393836 0.383046
25 2 0.398946 0.38702 0.357798
43 1 0.290728 0.628132 0.362769
47 1 0.549276 0.524376 0.368188
29 2 0.549184 0.399998 0.393103
27 2 0.381242 0.707976 0.395847
19 2 0.388824 0.542267 0.391076
23 2 0.665473 0.552144 0.390847
31 2 0.521122 0.648353 0.381323
34 1 0.265708 0.369328 0.561051
89 1 0.311156 0.297026 0.450861
9 2 0.342059 0.398819 0.493784
38 1 0.597327 0.314785 0.540591
93 1 0.553869 0.276332 0.47491
13 2 0.651671 0.37897 0.477752
2 2 0.293234 0.496159 0.567721
36 1 0.274954 0.634623 0.508001
73 1 0.293022 0.49097 0.438775
40 1 0.508031 0.519287 0.505922
57 1 0.44831 0.453227 0.445619
77 1 0.588556 0.457755 0.423148
6 2 0.508688 0.409024 0.519639
61 1 0.734217 0.477736 0.444664
4 2 0.378014 0.706804 0.494784
75 1 0.348785 0.802746 0.444935
91 1 0.29766 0.619685 0.436503
11 2 0.376136 0.551447 0.488594
59 1 0.490309 0.729859 0.446668
79 1 0.60073 0.669309 0.444982
95 1 0.512559 0.552541 0.43722
8 2 0.523578 0.648095 0.510805
15 2 0.632948 0.5401 0.488444
63 1 0.60315 0.650446 0.445012
42 1 0.338827 0.284525 0.640582
50 1 0.292122 0.40182 0.633425
18 2 0.475381 0.263373 0.651519
46 1 0.631019 0.321613 0.674574
66 1 0.499732 0.295411 0.563793
22 2 0.70246 0.381688 0.61791
54 1 0.596075 0.276781 0.609996
70 1 0.713972 0.327405 0.545935
26 2 0.395627 0.370564 0.587168
44 1 0.282107 0.59428 0.623342
52 1 0.351315 0.623557 0.564091
48 1 0.535474 0.529395 0.653203
68 1 0.4172 0.634559 0.563534
82 1 0.428483 0.508378 0.562685
30 2 0.544445 0.395916 0.620395
56 1 0.549136 0.511926 0.574361
72 1 0.718471 0.552264 0.547909
86 1 0.653496 0.444369 0.552665
28 2 0.383875 0.679915 0.636893
20 2 0.390864 0.514558 0.64363
84 1 0.446982 0.722202 0.566832
24 2 0.661226 0.534981 0.616843
32 2 0.530763 0.639564 0.610892
88 1 0.637044 0.631274 0.560664
90 1 0.379836 0.251367 0.704806
10 2 0.398063 0.377622 0.689637
94 1 0.527413 0.349057 0.708995
14 2 0.625464 0.449003 0.69909
74 1 0.374203 0.49812 0.724967
58 1 0.490905 0.468316 0.709415
78 1 0.574137 0.551381 0.742162
62 1 0.747757 0.483616 0.670308
76 1 0.396695 0.715777 0.712801
92 1 0.323091 0.596811 0.69328
12 2 0.455353 0.602546 0.712901
60 1 0.491596 0.718113 0.678626
80 1 0.608051 0.682948 0.670362
96 1 0.575105 0.636692 0.68832
16 2 0.688907 0.594345 0.702988
64 1 0.655302 0.663082 0.636922
ITEM: TIMESTEP
400
ITEM: NUMBER OF ATOMS
96
ITEM: BOX BOUNDS pp pp pp
-5.2711189999999997e+00 1.4128881000000000e+01
-5.2711189999999997e+00 1.4128881000000000e+01
-8.1525440000000007e+00 2.3347456000000001e+01
ITEM: ATOMS id type xs ys zs
33 1 0.337927 0.316785 0.24211
49 1 0.368905 0.291872 0.310343
37 1 0.547338 0.380502 0.242601
65 1 0.51095 0.337157 0.324577
53 1 0.621026 0.307546 0.348424
69 1 0.72284 0.357101 0.308613
1 2 0.429632 0.384373 0.267858
35 1 0.335946 0.572647 0.250192
51 1 0.369659 0.488841 0.298996
39 1 0.513121 0.590933 0.304531
67 1 0.513123 0.591134 0.304622
81 1 0.484399 0.470631 0.32181
5 2 0.612321 0.419119 0.304911
55 1 0.628662 0.550424 0.307801
71 1 0.712344 0.612737 0.325665
85 1 0.726129 0.489122 0.325418
3 2 0.389409 0.624967 0.309172
83 1 0.472188 0.726204 0.324991
7 2 0.606679 0.680271 0.306276
87 1 0.6546 0.683872 0.379769
41 1 0.355797 0.273061 0.385347
17 2 0.44347 0.31351 0.444966
45 1 0.630073 0.291282 0.420152
21 2 0.704353 0.393885 0.382997
25 2 0.401801 0.387734 0.361952
43 1 0.289521 0.633944 0.362262
47 1 0.552602 0.525684 0.36721
29 2 0.554404 0.405399 0.399431
27 2 0.381304 0.710865 0.39614
19 2 0.384548 0.545818 0.390754
23 2 0.668525 0.552864 0.390327
31 2 0.520191 0.648536 0.382097
34 1 0.264764 0.369018 0.561531
89 1 0.315386 0.289773 0.45322
9 2 0.339424 0.397752 0.49305
38 1 0.599822 0.321296 0.545086
93 1 0.555499 0.277301 0.480637
13 2 0.657762 0.375397 0.478686
2 2 0.291455 0.496107 0.567529
36 1 0.272499 0.638235 0.508183
73 1 0.28874 0.492745 0.438052
40 1 0.503215 0.517033 0.50328
57 1 0.436591 0.453005 0.44339
77 1 0.593409 0.456139 0.422827
6 2 0.509355 0.41034 0.515463
61 1 0.735507 0.477814 0.445199
4 2 0.377703 0.707673 0.494741
75 1 0.347375 0.804532 0.445929
91 1 0.295074 0.623003 0.436437
11 2 0.370593 0.552076 0.488409
59 1 0.490595 0.730238 0.44725
79 1 0.600579 0.668108 0.445224
95 1 0.508802 0.547542 0.434518
8 2 0.521978 0.644551 0.509767
15 2 0.630541 0.536218 0.486972
63 1 0.603266 0.648628 0.445064
42 1 0.338719 0.285924 0.640085
50 1 0.292517 0.402546 0.633112
18 2 0.474567 0.264069 0.650664
46 1 0.630847 0.319907 0.672892
66 1 0.501825 0.29425 0.559642
22 2 0.706323 0.379421 0.618676
54 1 0.593363 0.268007 0.610618
70 1 0.71926 0.32444 0.547549
26 2 0.396505 0.371921 0.585755
44 1 0.281526 0.59523 0.62307
52 1 0.350093 0.624029 0.563505
48 1 0.532784 0.527631 0.651053
68 1 0.415515 0.63417 0.563041
82 1 0.426457 0.508746 0.561095
30 2 0.548214 0.39235 0.615121
56 1 0.547765 0.513805 0.571143
72 1 0.717605 0.54163 0.545322
86 1 0.650178 0.438606 0.552939
28 2 0.383706 0.68102 0.636137
20 2 0.390052 0.515398 0.642675
84 1 0.447773 0.722181 0.566051
24 2 0.65968 0.531689 0.615253
32 2 0.529846 0.638989 0.60969
88 1 0.635227 0.627129 0.559231
90 1 0.379738 0.253701 0.704718
10 2 0.399057 0.379145 0.688555
94 1 0.527462 0.349619 0.707872
14 2 0.623123 0.447976 0.696794
74 1 0.374675 0.499163 0.724162
58 1 0.490027 0.469644 0.709708
78 1 0.574571 0.5514 0.740693
62 1 0.747446 0.482572 0.669351
76 1 0.398351 0.717394 0.711797
92 1 0.323335 0.598125 0.692811
12 2 0.455673 0.603393 0.711675
60 1 0.492722 0.718543 0.677226
80 1 0.608857 0.682287 0.668031
96 1 0.575153 0.635777 0.686543
16 2 0.688779 0.592944 0.700845
64 1 0.655488 0.660413 0.634179
ITEM: TIMESTEP
500
ITEM: NUMBER OF ATOMS
96
ITEM: BOX BOUNDS pp pp pp
-5.2711189999999997e+00 1.4128881000000000e+01
-5.2711189999999997e+00 1.4128881000000000e+01
-8.1525440000000007e+00 2.3347456000000001e+01
ITEM: ATOMS id type xs ys zs
33 1 0.338305 0.316151 0.244683
49 1 0.370406 0.291488 0.312629
37 1 0.547077 0.381805 0.244635
65 1 0.511075 0.338051 0.32675
53 1 0.621327 0.308646 0.350033
69 1 0.721498 0.357837 0.309325
1 2 0.429533 0.384732 0.270047
35 1 0.335755 0.572085 0.250548
51 1 0.368292 0.488969 0.300061
39 1 0.513198 0.591809 0.304878
67 1 0.513247 0.591748 0.304817
81 1 0.482517 0.472327 0.323698
5 2 0.611451 0.420764 0.306951
55 1 0.629177 0.551445 0.307927
71 1 0.71273 0.613627 0.325949
85 1 0.726539 0.489873 0.325937
3 2 0.389374 0.625375 0.309154
83 1 0.472575 0.726398 0.325416
7 2 0.606688 0.68112 0.306893
87 1 0.654915 0.684198 0.380123
41 1 0.357553 0.271451 0.387142
17 2 0.444162 0.312303 0.446319
45 1 0.63011 0.291831 0.4216
21 2 0.705054 0.39452 0.383933
25 2 0.401796 0.387789 0.364211
43 1 0.289164 0.63644 0.361891
47 1 0.554811 0.524866 0.36756
29 2 0.555398 0.406466 0.401564
27 2 0.381619 0.711531 0.396069
19 2 0.383051 0.546443 0.390629
23 2 0.669877 0.55347 0.39079
31 2 0.520041 0.647894 0.382363
34 1 0.26501 0.36804 0.561659
89 1 0.316565 0.28679 0.454965
9 2 0.338417 0.397419 0.492669
38 1 0.602762 0.321079 0.546255
93 1 0.556327 0.277198 0.48253
13 2 0.660036 0.375377 0.479488
2 2 0.290656 0.495717 0.567188
36 1 0.27129 0.639274 0.50789
73 1 0.286896 0.493235 0.43782
40 1 0.502282 0.517731 0.502718
57 1 0.434511 0.452563 0.443193
77 1 0.594472 0.456565 0.423702
6 2 0.510312 0.410477 0.514944
61 1 0.736585 0.478994 0.446271
4 2 0.377078 0.707896 0.494478
75 1 0.347277 0.80511 0.445959
91 1 0.294005 0.624077 0.436164
11 2 0.36871 0.552228 0.488108
59 1 0.490549 0.730508 0.447173
79 1 0.600617 0.668335 0.445254
95 1 0.507489 0.545927 0.433767
8 2 0.521281 0.644649 0.509261
15 2 0.630183 0.536569 0.486967
63 1 0.603449 0.649083 0.445106
42 1 0.337523 0.286623 0.639132
50 1 0.292728 0.403074 0.632698
18 2 0.472106 0.263357 0.650092
46 1 0.630737 0.318056 0.669041
66 1 0.500843 0.292787 0.557032
22 2 0.709219 0.381697 0.618324
54 1 0.586006 0.260693 0.609438
70 1 0.722207 0.324101 0.548012
26 2 0.396993 0.37234 0.584996
44 1 0.281295 0.595233 0.62264
52 1 0.349173 0.623868 0.562932
48 1 0.532622 0.52671 0.650174
68 1 0.415041 0.634062 0.562467
82 1 0.425737 0.508864 0.560237
30 2 0.549921 0.389406 0.613999
56 1 0.547446 0.512511 0.570667
72 1 0.718667 0.540998 0.54414
86 1 0.651075 0.438655 0.552755
28 2 0.383683 0.681219 0.635446
20 2 0.39 0.515597 0.641877
84 1 0.447791 0.722251 0.5655
24 2 0.659789 0.531682 0.614351
32 2 0.529541 0.638248 0.608919
88 1 0.634928 0.626827 0.558526
90 1 0.377366 0.254925 0.704285
10 2 0.399294 0.379663 0.68786
94 1 0.528041 0.348932 0.706255
14 2 0.623022 0.446867 0.69551
74 1 0.375016 0.499569 0.723416
58 1 0.490365 0.469422 0.709321
78 1 0.574966 0.551013 0.73966
62 1 0.748284 0.483054 0.668779
76 1 0.399614 0.717885 0.710926
92 1 0.323667 0.598518 0.692188
12 2 0.456194 0.603448 0.710676
60 1 0.493369 0.718481 0.676174
80 1 0.609376 0.681842 0.666724
96 1 0.575626 0.635391 0.685535
16 2 0.688941 0.592414 0.699961
64 1 0.655247 0.659949 0.633322
ITEM: TIMESTEP
600
ITEM: NUMBER OF ATOMS
96
ITEM: BOX BOUNDS pp pp pp
-5.2711189999999997e+00 1.4128881000000000e+01
-5.2711189999999997e+00 1.4128881000000000e+01
-8.1525440000000007e+00 2.3347456000000001e+01
ITEM: ATOMS id type xs ys zs
33 1 0.338186 0.315584 0.24682
49 1 0.37148 0.290917 0.3145
37 1 0.54657 0.382666 0.246079
65 1 0.51115 0.33826 0.328327
53 1 0.621905 0.309408 0.350928
69 1 0.720573 0.358338 0.310051
1 2 0.429263 0.38478 0.271813
35 1 0.335619 0.571344 0.25071
51 1 0.367313 0.488968 0.300889
39 1 0.513366 0.59217 0.304946
67 1 0.513141 0.592056 0.30503
81 1 0.481154 0.473379 0.325195
5 2 0.610786 0.421758 0.308285
55 1 0.62934 0.551911 0.308128
71 1 0.713007 0.614283 0.326328
85 1 0.726752 0.490453 0.326408
3 2 0.389237 0.625227 0.309067
83 1 0.4727 0.726208 0.325376
7 2 0.60675 0.681492 0.307107
87 1 0.655159 0.684604 0.380151
41 1 0.358475 0.270436 0.388776
17 2 0.445374 0.311078 0.447774
45 1 0.631604 0.292143 0.422314
21 2 0.705841 0.395346 0.384682
25 2 0.401882 0.387498 0.366106
43 1 0.289075 0.637066 0.361636
47 1 0.555943 0.524426 0.368008
29 2 0.555912 0.40667 0.402805
27 2 0.381629 0.711734 0.395815
19 2 0.382792 0.546364 0.390651
23 2 0.670572 0.554124 0.391247
31 2 0.520048 0.647686 0.382508
34 1 0.265585 0.367399 0.562032
89 1 0.317868 0.284845 0.456642
9 2 0.338412 0.397318 0.492516
38 1 0.606952 0.319188 0.547416
93 1 0.558709 0.277194 0.483373
13 2 0.661548 0.375672 0.4801
2 2 0.289831 0.495828 0.566829
36 1 0.270588 0.639733 0.507526
73 1 0.286361 0.49329 0.437729
40 1 0.501942 0.519392 0.503089
57 1 0.434579 0.452308 0.443495
77 1 0.595151 0.456929 0.424223
6 2 0.51141 0.410503 0.515082
61 1 0.73718 0.480332 0.447334
4 2 0.376539 0.708198 0.494122
75 1 0.347366 0.805507 0.445581
91 1 0.293604 0.624451 0.435866
11 2 0.368027 0.552435 0.487938
59 1 0.490295 0.731187 0.446869
79 1 0.600616 0.669246 0.44507
95 1 0.507205 0.545595 0.433731
8 2 0.521118 0.645873 0.50891
15 2 0.629669 0.537507 0.487053
63 1 0.603512 0.64994 0.445029
42 1 0.334946 0.28826 0.638572
50 1 0.292525 0.404706 0.632614
18 2 0.468121 0.262274 0.649799
46 1 0.63158 0.314688 0.664495
66 1 0.497586 0.291511 0.554349
22 2 0.71176 0.384445 0.617292
54 1 0.577246 0.252885 0.607503
70 1 0.726029 0.325065 0.547671
26 2 0.397106 0.373317 0.584795
44 1 0.28097 0.595532 0.622345
52 1 0.34843 0.623941 0.562505
48 1 0.532792 0.526101 0.650121
68 1 0.414881 0.634357 0.561947
82 1 0.424823 0.509286 0.559776
30 2 0.551306 0.385129 0.613144
56 1 0.546231 0.509914 0.571561
72 1 0.719393 0.540996 0.543222
86 1 0.650692 0.439242 0.552553
28 2 0.383609 0.681371 0.634976
20 2 0.389635 0.516007 0.6414
84 1 0.447459 0.722471 0.565108
24 2 0.659773 0.532749 0.613565
32 2 0.529132 0.637435 0.608418
88 1 0.634828 0.628417 0.558188
90 1 0.373431 0.256804 0.704285
10 2 0.399417 0.380401 0.68763
94 1 0.529252 0.347447 0.703836
14 2 0.623604 0.445158 0.694037
74 1 0.375155 0.500091 0.723099
58 1 0.491462 0.46837 0.709316
78 1 0.575499 0.550026 0.738791
62 1 0.749406 0.484702 0.667957
76 1 0.400711 0.717909 0.710347
92 1 0.323855 0.598986 0.691828
12 2 0.456723 0.603143 0.710014
60 1 0.493672 0.718232 0.675469
80 1 0.609589 0.681509 0.665837
96 1 0.575931 0.635099 0.684916
16 2 0.688861 0.591959 0.699484
64 1 0.654442 0.660347 0.63326
ITEM: TIMESTEP
700
ITEM: NUMBER OF ATOMS
96
ITEM: BOX BOUNDS pp pp pp
-5.2711189999999997e+00 1.4128881000000000e+01
-5.2711189999999997e+00 1.4128881000000000e+01
-8.1525440000000007e+00 2.3347456000000001e+01
ITEM: ATOMS id type xs ys zs
33 1 0.337364 0.314224 0.250813
49 1 0.372119 0.28962 0.318246
37 1 0.545543 0.38312 0.248259
65 1 0.512396 0.337633 0.331005
53 1 0.624853 0.310905 0.351828
69 1 0.720173 0.35931 0.311258
1 2 0.428894 0.383363 0.275158
35 1 0.33566 0.568736 0.250955
51 1 0.366869 0.488138 0.302264
39 1 0.513046 0.591697 0.30548
67 1 0.512882 0.5916 0.305521
81 1 0.480138 0.473355 0.32762
5 2 0.61064 0.422787 0.310069
55 1 0.629371 0.552452 0.308274
71 1 0.713102 0.615649 0.326282
85 1 0.727314 0.491897 0.326689
3 2 0.388819 0.624062 0.308935
83 1 0.472056 0.725402 0.324971
7 2 0.605994 0.681699 0.306962
87 1 0.654953 0.685985 0.37973
41 1 0.36199 0.267712 0.392363
17 2 0.448884 0.308408 0.451979
45 1 0.636589 0.293537 0.42293
21 2 0.7082 0.398048 0.385811
25 2 0.403261 0.386089 0.370184
43 1 0.288728 0.636304 0.361077
47 1 0.556786 0.525326 0.368548
29 2 0.557693 0.406315 0.404358
27 2 0.380925 0.711415 0.395366
19 2 0.382737 0.545788 0.390841
23 2 0.67167 0.555816 0.391527
31 2 0.519744 0.648058 0.382635
34 1 0.266632 0.365399 0.563798
89 1 0.320777 0.28149 0.459774
9 2 0.337977 0.397297 0.491937
38 1 0.6161 0.3196 0.550273
93 1 0.566286 0.277727 0.484666
13 2 0.664609 0.377766 0.480652
2 2 0.28787 0.496534 0.56639
36 1 0.269398 0.640279 0.506823
73 1 0.285784 0.493236 0.437544
40 1 0.503544 0.52203 0.504918
57 1 0.435581 0.451813 0.444252
77 1 0.596341 0.458277 0.4243
6 2 0.513078 0.413118 0.515056
61 1 0.73863 0.485093 0.450855
4 2 0.375371 0.708777 0.493616
75 1 0.347198 0.805964 0.444683
91 1 0.291064 0.625332 0.434927
11 2 0.366903 0.552858 0.487363
59 1 0.489185 0.732773 0.446357
79 1 0.600122 0.671966 0.444702
95 1 0.506732 0.545738 0.434446
8 2 0.52083 0.649048 0.508915
15 2 0.627876 0.540851 0.486102
63 1 0.603179 0.653016 0.44482
42 1 0.328849 0.292049 0.635803
50 1 0.291414 0.409516 0.633043
18 2 0.461512 0.260521 0.647982
46 1 0.629225 0.310057 0.661571
66 1 0.492164 0.291663 0.548879
22 2 0.707971 0.380527 0.613571
54 1 0.569079 0.248926 0.604606
70 1 0.734403 0.323683 0.543808
26 2 0.395926 0.375402 0.583732
44 1 0.280393 0.596708 0.62232
52 1 0.34656 0.624615 0.562158
48 1 0.534613 0.526029 0.651312
68 1 0.414988 0.635995 0.561502
82 1 0.422733 0.511195 0.559228
30 2 0.548007 0.380976 0.612925
56 1 0.542793 0.506852 0.574707
72 1 0.722454 0.536771 0.53815
86 1 0.646304 0.442445 0.551278
28 2 0.384025 0.681719 0.634755
20 2 0.388808 0.5172 0.640812
84 1 0.446578 0.722801 0.564977
24 2 0.661633 0.532297 0.611113
32 2 0.529209 0.636065 0.608264
88 1 0.63512 0.630917 0.557799
90 1 0.36623 0.259567 0.702277
10 2 0.398472 0.381169 0.68668
94 1 0.527914 0.345042 0.701331
14 2 0.624009 0.442234 0.691685
74 1 0.375372 0.500622 0.722649
58 1 0.492549 0.466223 0.709278
78 1 0.577082 0.547652 0.737434
62 1 0.749245 0.480852 0.664887
76 1 0.402501 0.717491 0.710116
92 1 0.324409 0.600146 0.691737
12 2 0.45795 0.602386 0.709441
60 1 0.494802 0.717482 0.674968
80 1 0.610702 0.679517 0.6654
96 1 0.577427 0.634717 0.684684
16 2 0.689795 0.5886 0.69753
64 1 0.654846 0.659464 0.632537
ITEM: TIMESTEP
800
ITEM: NUMBER OF ATOMS
96
ITEM: BOX BOUNDS pp pp pp
-5.2711189999999997e+00 1.4128881000000000e+01
-5.2711189999999997e+00 1.4128881000000000e+01
-8.1525440000000007e+00 2.3347456000000001e+01
ITEM: ATOMS id type xs ys zs
33 1 0.337437 0.313208 0.2531
49 1 0.370574 0.28973 0.321002
37 1 0.545195 0.382631 0.250166
65 1 0.513669 0.337339 0.333171
53 1 0.627205 0.311892 0.352747
69 1 0.720553 0.359808 0.312659
1 2 0.428949 0.382124 0.277735
35 1 0.33593 0.567331 0.250836
51 1 0.367434 0.488135 0.302623
39 1 0.512638 0.591023 0.306001
67 1 0.512648 0.590985 0.306003
81 1 0.479864 0.472905 0.32935
5 2 0.610989 0.423329 0.311379
55 1 0.629416 0.552732 0.308563
71 1 0.712962 0.616574 0.326301
85 1 0.727826 0.492935 0.327223
3 2 0.388481 0.623738 0.308676
83 1 0.471447 0.725263 0.324715
7 2 0.605237 0.681646 0.30679
87 1 0.654402 0.687117 0.379493
41 1 0.365238 0.265278 0.394714
17 2 0.450484 0.306382 0.454576
45 1 0.639246 0.294795 0.42366
21 2 0.709801 0.399894 0.386917
25 2 0.404649 0.384755 0.372988
43 1 0.288553 0.635741 0.361025
47 1 0.557371 0.525992 0.369045
29 2 0.559008 0.406499 0.405562
27 2 0.380453 0.711417 0.395027
19 2 0.38304 0.545385 0.390592
23 2 0.672304 0.557278 0.391876
31 2 0.51932 0.648514 0.382693
34 1 0.268421 0.361765 0.566469
89 1 0.321905 0.278647 0.461421
9 2 0.336441 0.396217 0.4914
38 1 0.618468 0.319319 0.550747
93 1 0.570143 0.277579 0.485092
13 2 0.665993 0.379708 0.48127
2 2 0.28685 0.496442 0.566582
36 1 0.268588 0.639051 0.506507
73 1 0.285676 0.49256 0.437085
40 1 0.501206 0.525341 0.50531
57 1 0.435162 0.451004 0.444318
77 1 0.596667 0.459601 0.424243
6 2 0.512754 0.414998 0.514298
61 1 0.739173 0.48801 0.453756
4 2 0.374434 0.708243 0.493383
75 1 0.346684 0.805657 0.444584
91 1 0.292802 0.624244 0.435042
11 2 0.366852 0.551876 0.487554
59 1 0.488054 0.7337 0.446172
79 1 0.599394 0.673622 0.444518
95 1 0.505718 0.545719 0.434349
8 2 0.520493 0.651566 0.50919
15 2 0.625602 0.542958 0.485605
63 1 0.60251 0.65542 0.444736
42 1 0.324544 0.294559 0.631003
50 1 0.290988 0.413629 0.634027
18 2 0.457539 0.260334 0.645887
46 1 0.627133 0.307813 0.660511
66 1 0.489155 0.291757 0.544669
22 2 0.706487 0.378769 0.61316
54 1 0.565216 0.248083 0.602456
70 1 0.736785 0.326176 0.542466
26 2 0.395957 0.377244 0.5829
44 1 0.280412 0.597226 0.622692
52 1 0.344946 0.624729 0.562246
48 1 0.537986 0.527386 0.652034
68 1 0.415418 0.637447 0.561606
82 1 0.421989 0.512917 0.5594
30 2 0.54647 0.379216 0.612311
56 1 0.541951 0.506519 0.575825
72 1 0.725953 0.526624 0.531713
86 1 0.643023 0.442454 0.551363
28 2 0.384624 0.681919 0.63491
20 2 0.389178 0.518008 0.640777
84 1 0.445604 0.723017 0.565034
24 2 0.665116 0.532724 0.608659
32 2 0.530067 0.636216 0.608473
88 1 0.635523 0.632994 0.557444
90 1 0.359895 0.260582 0.698307
10 2 0.396923 0.38124 0.685986
94 1 0.525883 0.343738 0.699839
14 2 0.624194 0.440659 0.690162
74 1 0.376228 0.500809 0.722633
58 1 0.492428 0.465274 0.707874
78 1 0.577952 0.545891 0.736371
62 1 0.750034 0.478776 0.663421
76 1 0.40339 0.717218 0.710327
92 1 0.325293 0.600698 0.691983
12 2 0.459093 0.602262 0.709406
60 1 0.495643 0.717575 0.674928
80 1 0.611867 0.679008 0.665681
96 1 0.578643 0.635478 0.685051
16 2 0.690179 0.586361 0.695911
64 1 0.656505 0.659579 0.631755
ITEM: TIMESTEP
900
ITEM: NUMBER OF ATOMS
96
ITEM: BOX BOUNDS pp pp pp
-5.2711189999999997e+00 1.4128881000000000e+01
-5.2711189999999997e+00 1.4128881000000000e+01
-8.1525440000000007e+00 2.3347456000000001e+01
ITEM: ATOMS id type xs ys zs
33 1 0.337218 0.310391 0.255141
49 1 0.365169 0.289714 0.324198
37 1 0.544435 0.380716 0.252069
65 1 0.514989 0.336207 0.335154
53 1 0.629261 0.312332 0.353729
69 1 0.721724 0.36175 0.313025
1 2 0.428428 0.379002 0.280114
35 1 0.336706 0.567499 0.249826
51 1 0.368451 0.488383 0.300853
39 1 0.509712 0.586195 0.306016