ITEM: TIMESTEP
0
ITEM: NUMBER OF ATOMS
96
ITEM: BOX BOUNDS pp pp pp
-5.2711189999999997e+00 1.4128881000000000e+01
-5.2711189999999997e+00 1.4128881000000000e+01
-8.1525440000000007e+00 2.3347456000000001e+01
ITEM: ATOMS id type xs ys zs
33 1 0.337522 0.305922 0.256462
49 1 0.354443 0.292622 0.327784
37 1 0.539818 0.378545 0.253786
1 2 0.424388 0.377879 0.283396
69 1 0.720892 0.362529 0.313915
35 1 0.337765 0.576306 0.245868
51 1 0.372161 0.494851 0.293386
39 1 0.508906 0.588795 0.308888
67 1 0.508991 0.588941 0.30891
81 1 0.474912 0.470368 0.332218
5 2 0.609335 0.422607 0.312298
55 1 0.62539 0.552155 0.309049
85 1 0.725095 0.495184 0.327579
3 2 0.386404 0.626307 0.307471
83 1 0.470828 0.72436 0.326729
71 1 0.709846 0.618739 0.325654
7 2 0.600347 0.680888 0.307517
41 1 0.375995 0.255217 0.398957
65 1 0.513923 0.335643 0.336804
25 2 0.404919 0.37834 0.378812
53 1 0.628729 0.312978 0.35472
45 1 0.642883 0.297538 0.425551
19 2 0.380146 0.542869 0.388311
73 1 0.28338 0.49347 0.436186
47 1 0.552707 0.527598 0.37025
29 2 0.55766 0.408343 0.406412
57 1 0.425467 0.442299 0.435432
77 1 0.599278 0.465823 0.428374
95 1 0.49971 0.5377 0.44017
21 2 0.709546 0.403622 0.388017
23 2 0.669191 0.561314 0.391913
43 1 0.286881 0.634553 0.360274
27 2 0.379495 0.710005 0.395064
91 1 0.293539 0.622849 0.434556
31 2 0.518679 0.64665 0.385742
87 1 0.651898 0.69114 0.379169
89 1 0.327067 0.273124 0.464025
9 2 0.333742 0.395641 0.488703
17 2 0.454839 0.303607 0.458409
93 1 0.577182 0.279616 0.488258
66 1 0.489168 0.294689 0.541953
38 1 0.637032 0.312342 0.553395
13 2 0.662955 0.385074 0.483091
70 1 0.749771 0.362053 0.542178
11 2 0.370131 0.55119 0.484963
40 1 0.525761 0.518716 0.514115
6 2 0.506841 0.429616 0.509585
61 1 0.743083 0.490137 0.4505
15 2 0.639448 0.551815 0.488436
72 1 0.733745 0.482084 0.528895
86 1 0.623997 0.438582 0.554567
36 1 0.270498 0.63804 0.505691
4 2 0.376461 0.707326 0.493222
59 1 0.488255 0.732743 0.447189
8 2 0.522908 0.648003 0.509778
79 1 0.601154 0.67544 0.445452
63 1 0.604999 0.659388 0.445504
75 1 0.345328 0.803873 0.44453
34 1 0.26599 0.364968 0.564018
42 1 0.318997 0.296445 0.625653
26 2 0.394867 0.378221 0.579166
18 2 0.450511 0.256803 0.64072
54 1 0.56202 0.242414 0.598344
30 2 0.544163 0.370167 0.608535
46 1 0.622964 0.300957 0.658202
22 2 0.704059 0.379018 0.614527
2 2 0.288973 0.499165 0.564791
50 1 0.290921 0.416765 0.631145
44 1 0.282757 0.59731 0.621873
20 2 0.395431 0.518562 0.638768
48 1 0.554161 0.536845 0.661269
82 1 0.424329 0.516873 0.556685
56 1 0.532604 0.502047 0.589928
24 2 0.667519 0.535202 0.601291
62 1 0.747487 0.477405 0.661142
52 1 0.346456 0.625776 0.561492
28 2 0.386193 0.682237 0.634406
68 1 0.418714 0.639449 0.56171
84 1 0.44754 0.72049 0.564677
32 2 0.534495 0.638451 0.61052
88 1 0.639826 0.644113 0.556441
64 1 0.665821 0.663214 0.628343
90 1 0.351726 0.259367 0.692625
10 2 0.392897 0.379358 0.682376
94 1 0.520357 0.339914 0.695373
74 1 0.379425 0.499611 0.72043
92 1 0.327512 0.599539 0.690825
58 1 0.488908 0.463669 0.702892
78 1 0.574836 0.543302 0.733281
14 2 0.621778 0.433122 0.689192
16 2 0.682925 0.580908 0.691117
76 1 0.399017 0.717828 0.710233
12 2 0.459304 0.605172 0.708955
60 1 0.494822 0.722838 0.673507
96 1 0.579129 0.647456 0.690629
80 1 0.613658 0.685497 0.668893
ITEM: TIMESTEP
100
ITEM: NUMBER OF ATOMS
96
ITEM: BOX BOUNDS pp pp pp
-5.2711189999999997e+00 1.4128881000000000e+01
-5.2711189999999997e+00 1.4128881000000000e+01
-8.1525440000000007e+00 2.3347456000000001e+01
ITEM: ATOMS id type xs ys zs
33 1 0.337625 0.30433 0.25719
49 1 0.352737 0.293463 0.328776
37 1 0.538655 0.37785 0.25376
1 2 0.423735 0.377675 0.283431
69 1 0.720509 0.363536 0.314515
35 1 0.338272 0.579912 0.24473
51 1 0.373413 0.496365 0.290872
39 1 0.508622 0.588915 0.309287
67 1 0.508679 0.589066 0.309343
81 1 0.474547 0.4709 0.332256
5 2 0.608584 0.42206 0.311887
55 1 0.62514 0.552161 0.308976
85 1 0.723296 0.494816 0.328827
3 2 0.386403 0.6268 0.307437
83 1 0.471076 0.724031 0.3273
71 1 0.709572 0.618648 0.326409
7 2 0.600111 0.68079 0.307988
41 1 0.377514 0.254108 0.399124
65 1 0.513072 0.335687 0.337401
25 2 0.402478 0.379916 0.378069
53 1 0.629844 0.314865 0.354782
45 1 0.641324 0.298874 0.425463
19 2 0.380551 0.542539 0.388355
73 1 0.28374 0.493637 0.436072
47 1 0.553964 0.527649 0.369008
29 2 0.553354 0.40914 0.408011
57 1 0.42557 0.436841 0.433936
77 1 0.601611 0.461083 0.424823
95 1 0.501724 0.53473 0.438319
21 2 0.713838 0.404969 0.388567
23 2 0.668879 0.561708 0.392804
43 1 0.286972 0.634528 0.360217
27 2 0.379379 0.70985 0.395095
91 1 0.293311 0.622043 0.434511
31 2 0.517478 0.645965 0.386083
87 1 0.650118 0.69896 0.37999
89 1 0.327461 0.272562 0.46396
9 2 0.333472 0.395572 0.488734
17 2 0.454299 0.304184 0.459419
93 1 0.577826 0.279616 0.48849
66 1 0.489552 0.298976 0.540522
38 1 0.637569 0.311937 0.55364
13 2 0.663683 0.384755 0.483263
70 1 0.750403 0.359913 0.542194
11 2 0.372098 0.551142 0.484533
40 1 0.526114 0.512047 0.514776
6 2 0.506633 0.429402 0.509849
61 1 0.745379 0.489826 0.450784
15 2 0.640043 0.545751 0.491141
72 1 0.736383 0.479688 0.529372
86 1 0.624828 0.438292 0.554736
36 1 0.270907 0.637509 0.505402
4 2 0.376986 0.707095 0.493434
59 1 0.486621 0.735395 0.447023
8 2 0.524331 0.646458 0.508908
79 1 0.595394 0.686076 0.444159
63 1 0.604862 0.655298 0.44413
75 1 0.34549 0.803662 0.444671
34 1 0.265694 0.364982 0.563746
42 1 0.318826 0.296329 0.625208
26 2 0.394235 0.378247 0.579338
18 2 0.450598 0.256889 0.640501
54 1 0.561682 0.242997 0.597938
30 2 0.544149 0.371019 0.608397
46 1 0.623133 0.301274 0.657738
22 2 0.704289 0.379497 0.614412
2 2 0.288649 0.499583 0.56496
50 1 0.290861 0.416839 0.630954
44 1 0.282793 0.597529 0.621482
20 2 0.395683 0.518709 0.638566
48 1 0.556328 0.53924 0.662772
82 1 0.424998 0.515945 0.556777
56 1 0.533134 0.503724 0.591535
24 2 0.667609 0.536388 0.600685
62 1 0.747634 0.478472 0.660621
52 1 0.346878 0.622702 0.560424
28 2 0.385558 0.681877 0.633823
68 1 0.420267 0.639675 0.561503
84 1 0.447864 0.719069 0.564295
32 2 0.535491 0.640623 0.611439
88 1 0.640158 0.646761 0.55399
64 1 0.667066 0.664164 0.625478
90 1 0.351585 0.259309 0.692122
10 2 0.392883 0.379387 0.682242
94 1 0.520538 0.340095 0.694919
74 1 0.377916 0.499359 0.720291
92 1 0.32665 0.599362 0.690526
58 1 0.489066 0.464009 0.702399
78 1 0.574859 0.54375 0.732739
14 2 0.622302 0.433387 0.688884
16 2 0.683103 0.580097 0.691244
76 1 0.39733 0.717584 0.710205
12 2 0.457288 0.605238 0.709295
60 1 0.488097 0.724077 0.672541
96 1 0.579898 0.647575 0.693689
80 1 0.622332 0.680788 0.666643
ITEM: TIMESTEP
200
ITEM: NUMBER OF ATOMS
96
ITEM: BOX BOUNDS pp pp pp
-5.2711189999999997e+00 1.4128881000000000e+01
-5.2711189999999997e+00 1.4128881000000000e+01
-8.1525440000000007e+00 2.3347456000000001e+01
ITEM: ATOMS id type xs ys zs
33 1 0.338169 0.299044 0.258301
49 1 0.346326 0.29513 0.33027
37 1 0.538239 0.376804 0.256514
1 2 0.421359 0.377055 0.283971
69 1 0.720797 0.368132 0.315783
35 1 0.340928 0.589518 0.24229
51 1 0.375167 0.500471 0.287009
39 1 0.508305 0.588955 0.30954
67 1 0.508386 0.589109 0.30961
81 1 0.471415 0.471586 0.332137
5 2 0.606077 0.424204 0.315307
55 1 0.625198 0.553032 0.310261
85 1 0.724211 0.495799 0.328772
3 2 0.386419 0.628856 0.307165
83 1 0.469593 0.724032 0.327192
71 1 0.710165 0.618786 0.329532
7 2 0.599801 0.680843 0.310309
41 1 0.379774 0.25368 0.398948
65 1 0.511443 0.337234 0.339204
25 2 0.399688 0.379963 0.379305
53 1 0.631815 0.31502 0.353513
45 1 0.636181 0.299021 0.424502
19 2 0.380773 0.542239 0.386959
73 1 0.285514 0.494395 0.433024
47 1 0.554019 0.524951 0.371105
29 2 0.556523 0.408487 0.408893
57 1 0.422029 0.436518 0.433202
77 1 0.600538 0.459363 0.422046
95 1 0.499442 0.533081 0.438838
21 2 0.713565 0.407012 0.38917
23 2 0.669107 0.562286 0.394823
43 1 0.285925 0.63235 0.359769
27 2 0.376483 0.709694 0.395056
91 1 0.295536 0.620563 0.434021
31 2 0.517127 0.644341 0.387973
87 1 0.642512 0.701319 0.382514
89 1 0.328002 0.271947 0.46397
9 2 0.331714 0.395553 0.48857
17 2 0.454648 0.304835 0.459101
93 1 0.577153 0.278638 0.488827
66 1 0.489686 0.297297 0.541918
38 1 0.637995 0.311268 0.553404
13 2 0.667313 0.380531 0.482694
70 1 0.752746 0.349195 0.542267
11 2 0.374989 0.548999 0.484121
40 1 0.525233 0.510027 0.516947
6 2 0.504376 0.431576 0.5095
61 1 0.748335 0.488632 0.453426
15 2 0.642862 0.538801 0.493561
72 1 0.741518 0.468717 0.532167
86 1 0.624753 0.436803 0.55421
36 1 0.27346 0.634914 0.504677
4 2 0.37812 0.704645 0.493581
59 1 0.478567 0.738856 0.446228
8 2 0.52598 0.641875 0.507692
79 1 0.58796 0.702294 0.4465
63 1 0.610702 0.649947 0.445913
75 1 0.346112 0.802487 0.445784
34 1 0.263982 0.365262 0.563527
42 1 0.318277 0.296118 0.624442
26 2 0.393133 0.378714 0.579123
18 2 0.450749 0.257938 0.639586
54 1 0.561365 0.244332 0.596981
30 2 0.543439 0.373052 0.608945
46 1 0.623365 0.302329 0.656372
22 2 0.705362 0.382385 0.612985
2 2 0.288574 0.498832 0.563951
50 1 0.29012 0.416489 0.630571
44 1 0.280998 0.597414 0.619557
20 2 0.395615 0.518765 0.638495
48 1 0.557266 0.54323 0.664416
82 1 0.425522 0.516019 0.557859
56 1 0.535128 0.505761 0.593371
24 2 0.668533 0.539847 0.597001
62 1 0.749001 0.47936 0.658843
52 1 0.348874 0.621444 0.560097
28 2 0.384885 0.680319 0.632633
68 1 0.422119 0.638168 0.560661
84 1 0.450126 0.716301 0.563451
32 2 0.537855 0.643234 0.611193
88 1 0.639533 0.649163 0.554489
64 1 0.67069 0.66558 0.626959
90 1 0.351608 0.259137 0.691103
10 2 0.392476 0.379306 0.681771
94 1 0.520501 0.340593 0.694159
74 1 0.37724 0.499673 0.71933
92 1 0.325391 0.598293 0.689002
58 1 0.488912 0.464263 0.69985
78 1 0.573362 0.544638 0.731808
14 2 0.622106 0.433131 0.688581
16 2 0.681845 0.582029 0.690015
76 1 0.391583 0.716397 0.707516
12 2 0.457695 0.605933 0.708966
60 1 0.487806 0.724813 0.674897
96 1 0.581821 0.649974 0.695018
80 1 0.633723 0.684134 0.66126
ITEM: TIMESTEP
300
ITEM: NUMBER OF ATOMS
96
ITEM: BOX BOUNDS pp pp pp
-5.2711189999999997e+00 1.4128881000000000e+01
-5.2711189999999997e+00 1.4128881000000000e+01
-8.1525440000000007e+00 2.3347456000000001e+01
ITEM: ATOMS id type xs ys zs
33 1 0.344002 0.292431 0.26046
49 1 0.336336 0.302658 0.333055
37 1 0.533376 0.378922 0.262267
1 2 0.416595 0.378272 0.288304
69 1 0.718187 0.376342 0.312739
35 1 0.346832 0.595405 0.239621
51 1 0.375924 0.503135 0.284377
39 1 0.506733 0.592384 0.313226
67 1 0.50672 0.592232 0.313156
81 1 0.469429 0.475119 0.33193
5 2 0.604594 0.429583 0.317642
55 1 0.624678 0.556165 0.313496
85 1 0.72414 0.498385 0.331734
3 2 0.38596 0.632275 0.306275
83 1 0.472651 0.723915 0.331264
71 1 0.708587 0.622644 0.331713
7 2 0.598912 0.682621 0.31378
41 1 0.378867 0.253817 0.398533
65 1 0.513289 0.338374 0.339426
25 2 0.403044 0.379206 0.381817
53 1 0.632331 0.319219 0.353701
45 1 0.635419 0.295483 0.423921
19 2 0.381697 0.541963 0.385362
73 1 0.286797 0.491257 0.430177
47 1 0.554721 0.523698 0.373462
29 2 0.555315 0.407492 0.412426
57 1 0.425163 0.437937 0.43245
77 1 0.603876 0.458547 0.430374
95 1 0.502373 0.533018 0.440736
21 2 0.71363 0.403316 0.39012
23 2 0.669111 0.558962 0.396841
43 1 0.285048 0.627809 0.35848
27 2 0.372878 0.708049 0.393352
91 1 0.293945 0.618875 0.433503
31 2 0.51782 0.647359 0.392349
87 1 0.652289 0.690994 0.38641
89 1 0.329175 0.26959 0.463067
9 2 0.329616 0.393017 0.486284
17 2 0.455469 0.302515 0.460175
93 1 0.576485 0.274272 0.489025
66 1 0.487143 0.300684 0.540861
38 1 0.633581 0.308415 0.554494
13 2 0.666706 0.373691 0.483968
70 1 0.751105 0.330647 0.542273
11 2 0.373473 0.545014 0.482058
40 1 0.52732 0.508725 0.514536
6 2 0.503655 0.434619 0.508176
61 1 0.749034 0.479421 0.454364
15 2 0.646792 0.53895 0.493212
72 1 0.741099 0.454574 0.537977
86 1 0.618256 0.438169 0.553464
36 1 0.271535 0.628089 0.504923
4 2 0.376744 0.69988 0.492959
59 1 0.470599 0.7418 0.446118
8 2 0.526438 0.639473 0.509086
79 1 0.584525 0.714704 0.452178
63 1 0.618599 0.654552 0.45194
75 1 0.346652 0.798973 0.447547
34 1 0.263251 0.364677 0.562856
42 1 0.317782 0.296282 0.623787
26 2 0.392939 0.377127 0.577308
18 2 0.449965 0.257933 0.638304
54 1 0.561542 0.244713 0.599208
30 2 0.542635 0.373947 0.608912
46 1 0.626161 0.306745 0.655189
22 2 0.70615 0.388082 0.608046
2 2 0.288233 0.497834 0.562791
50 1 0.289392 0.417174 0.629827
44 1 0.282878 0.596901 0.619611
20 2 0.393256 0.517071 0.637842
48 1 0.558156 0.54533 0.662935
82 1 0.42688 0.515751 0.556528
56 1 0.535573 0.507592 0.591429
24 2 0.67272 0.54226 0.594768
62 1 0.748723 0.483235 0.65731
52 1 0.349166 0.620522 0.560095
28 2 0.38807 0.680251 0.631237
68 1 0.423676 0.636822 0.560629
84 1 0.450289 0.715117 0.562417
32 2 0.540739 0.644234 0.610745
88 1 0.643054 0.653822 0.55239
64 1 0.668197 0.671707 0.625537
90 1 0.351969 0.257477 0.690233
10 2 0.390838 0.37897 0.681079
94 1 0.520945 0.340657 0.692734
74 1 0.379891 0.500463 0.719777
92 1 0.326459 0.600449 0.688469
58 1 0.48969 0.464058 0.697707
78 1 0.5761 0.546503 0.728364
14 2 0.623096 0.435666 0.687117
16 2 0.68207 0.582403 0.686597
76 1 0.38827 0.714739 0.708511
12 2 0.457143 0.606889 0.70737
60 1 0.485641 0.726811 0.672896
96 1 0.575813 0.657556 0.692563
80 1 0.644693 0.690836 0.650105
ITEM: TIMESTEP
400
ITEM: NUMBER OF ATOMS
96
ITEM: BOX BOUNDS pp pp pp
-5.2711189999999997e+00 1.4128881000000000e+01
-5.2711189999999997e+00 1.4128881000000000e+01
-8.1525440000000007e+00 2.3347456000000001e+01
ITEM: ATOMS id type xs ys zs
33 1 0.352962 0.281941 0.269899
49 1 0.326509 0.315606 0.338099
37 1 0.527905 0.38833 0.263659
1 2 0.410764 0.383932 0.290845
69 1 0.717222 0.3811 0.312518
35 1 0.355966 0.592404 0.23615
51 1 0.378077 0.507196 0.284337
39 1 0.508581 0.602365 0.321814
67 1 0.508306 0.602219 0.321741
81 1 0.472231 0.479321 0.334091
5 2 0.6038 0.433201 0.31971
55 1 0.624035 0.561618 0.31459
85 1 0.72328 0.49789 0.33403
3 2 0.38668 0.63448 0.305378
83 1 0.470053 0.725412 0.335397
71 1 0.709478 0.621371 0.336529
7 2 0.601353 0.691006 0.320908
41 1 0.378163 0.255676 0.397831
65 1 0.511112 0.34432 0.341269
25 2 0.40601 0.382195 0.386306
53 1 0.627298 0.314416 0.354434
45 1 0.637386 0.292328 0.425533
19 2 0.384076 0.543687 0.38526
73 1 0.285751 0.484726 0.428125
47 1 0.555451 0.528365 0.375467
29 2 0.559975 0.407038 0.412771
57 1 0.427505 0.431102 0.432215
77 1 0.603888 0.457416 0.429785
95 1 0.497812 0.529732 0.441524
21 2 0.714519 0.397722 0.390559
23 2 0.671863 0.554474 0.398837
43 1 0.285733 0.626533 0.356627
27 2 0.374326 0.705726 0.394625
91 1 0.289777 0.611892 0.431139
31 2 0.521758 0.648459 0.399199
87 1 0.656856 0.694265 0.390401
89 1 0.327782 0.261733 0.464022
9 2 0.328827 0.387988 0.484416
17 2 0.452557 0.296519 0.462782
93 1 0.575056 0.263672 0.489264
66 1 0.49735 0.296122 0.543569
38 1 0.623832 0.309671 0.554837
13 2 0.657885 0.372319 0.486155
70 1 0.742048 0.326444 0.540897
11 2 0.370382 0.540937 0.480902
40 1 0.530334 0.51077 0.516937
6 2 0.503636 0.432776 0.507988
61 1 0.747657 0.471957 0.456898
15 2 0.649568 0.536776 0.495957
72 1 0.743227 0.454028 0.530025
86 1 0.620666 0.440308 0.554595
36 1 0.268002 0.621131 0.5032
4 2 0.372436 0.694063 0.490877
59 1 0.471357 0.744575 0.449853
8 2 0.523171 0.641986 0.505351
79 1 0.590703 0.721824 0.452237
63 1 0.627619 0.649081 0.454375
75 1 0.343532 0.795952 0.445987
34 1 0.263628 0.361914 0.562016
42 1 0.316202 0.296526 0.623565
26 2 0.392128 0.376758 0.575006
18 2 0.44726 0.257753 0.637443
54 1 0.561035 0.242182 0.601733
30 2 0.540301 0.375884 0.609458
46 1 0.628142 0.308213 0.654568
22 2 0.705564 0.387029 0.606998
2 2 0.287324 0.495834 0.561762
50 1 0.289298 0.415615 0.628577
44 1 0.282152 0.595564 0.620419
20 2 0.393202 0.517218 0.63624
48 1 0.556523 0.545806 0.65999
82 1 0.425161 0.513397 0.5558
56 1 0.533698 0.509607 0.591745
24 2 0.674829 0.544399 0.593595
62 1 0.749243 0.484846 0.654439
52 1 0.345858 0.617161 0.559895
28 2 0.386231 0.681795 0.63183
68 1 0.422091 0.636228 0.559996
84 1 0.444889 0.714713 0.56032
32 2 0.539624 0.647623 0.606566
88 1 0.645225 0.651121 0.543147
64 1 0.668617 0.671463 0.616351
90 1 0.351484 0.256837 0.689863
10 2 0.392264 0.378247 0.67986
94 1 0.522639 0.345097 0.689461
74 1 0.378069 0.498765 0.71718
92 1 0.327093 0.599384 0.689263
58 1 0.489286 0.463885 0.695445
78 1 0.573106 0.550002 0.725575
14 2 0.627354 0.439584 0.682235
16 2 0.68675 0.591047 0.682251
76 1 0.388344 0.712719 0.708228
12 2 0.459525 0.606739 0.704725
60 1 0.487225 0.723424 0.672486
96 1 0.575736 0.664609 0.689961
80 1 0.656879 0.684179 0.638651
ITEM: TIMESTEP
500
ITEM: NUMBER OF ATOMS
96
ITEM: BOX BOUNDS pp pp pp
-5.2711189999999997e+00 1.4128881000000000e+01
-5.2711189999999997e+00 1.4128881000000000e+01
-8.1525440000000007e+00 2.3347456000000001e+01
ITEM: ATOMS id type xs ys zs
33 1 0.362236 0.27659 0.287603
49 1 0.323682 0.328208 0.345911
37 1 0.523881 0.404926 0.263471
1 2 0.409489 0.388664 0.293863
69 1 0.721724 0.375906 0.313749
35 1 0.373045 0.593569 0.236027
51 1 0.376881 0.510439 0.28609
39 1 0.513216 0.606508 0.324454
67 1 0.513566 0.606648 0.324623
81 1 0.475025 0.484224 0.333901
5 2 0.606741 0.434386 0.319821
55 1 0.629421 0.56811 0.321512
85 1 0.722838 0.495282 0.330105
3 2 0.392886 0.635059 0.30567
83 1 0.477307 0.721965 0.339435
71 1 0.714202 0.624013 0.338493
7 2 0.607806 0.697336 0.330447
41 1 0.373992 0.262588 0.399928
65 1 0.505084 0.347495 0.339163
25 2 0.405317 0.389732 0.391353
53 1 0.619203 0.318638 0.356623
45 1 0.640063 0.28729 0.42465
19 2 0.385228 0.544154 0.385944
73 1 0.287771 0.480524 0.427287
47 1 0.555175 0.532167 0.377463
29 2 0.556289 0.400866 0.410395
57 1 0.417601 0.426345 0.432056
77 1 0.601974 0.451933 0.421813
95 1 0.504756 0.523383 0.442701
21 2 0.714223 0.395341 0.39024
23 2 0.675663 0.55614 0.400031
43 1 0.291766 0.637017 0.355648
27 2 0.377874 0.706559 0.396838
91 1 0.291591 0.609697 0.429936
31 2 0.525404 0.650566 0.405053
87 1 0.657375 0.698075 0.400842
89 1 0.327105 0.256324 0.46625
9 2 0.323786 0.381407 0.486163
17 2 0.452165 0.292048 0.465606
93 1 0.574564 0.262505 0.488138
66 1 0.495536 0.291284 0.545578
38 1 0.624796 0.308827 0.554687
13 2 0.656207 0.369728 0.483193
70 1 0.743717 0.336388 0.5395
11 2 0.367063 0.533295 0.481107
40 1 0.522888 0.511575 0.51731
6 2 0.501361 0.421608 0.508517
61 1 0.747235 0.474547 0.452242
15 2 0.642313 0.53124 0.492417
72 1 0.734347 0.454842 0.537689
86 1 0.614531 0.435791 0.553935
36 1 0.263656 0.616604 0.500764
4 2 0.363051 0.696494 0.492596
59 1 0.473423 0.748872 0.451798
8 2 0.515261 0.640719 0.498908
79 1 0.591214 0.732811 0.463197
63 1 0.653876 0.650969 0.463347
75 1 0.333424 0.794498 0.446168
34 1 0.259677 0.357137 0.562645
42 1 0.315908 0.29298 0.62312
26 2 0.390488 0.370767 0.574477
18 2 0.445428 0.254717 0.63566
54 1 0.564743 0.243276 0.605961
30 2 0.537813 0.374191 0.611681
46 1 0.626767 0.310458 0.656949
22 2 0.707788 0.381456 0.609366
2 2 0.28462 0.491983 0.561975
50 1 0.289733 0.413576 0.628077
44 1 0.276293 0.590507 0.618711
20 2 0.393804 0.517566 0.63339
48 1 0.565073 0.554028 0.658043
82 1 0.420515 0.516195 0.55403
56 1 0.53137 0.510652 0.593618
24 2 0.670573 0.538516 0.591753
62 1 0.757211 0.487853 0.652695
52 1 0.337728 0.618329 0.558169
28 2 0.382144 0.676963 0.62908
68 1 0.416712 0.639079 0.556199
84 1 0.437237 0.709972 0.557722
32 2 0.540822 0.649308 0.59993
88 1 0.638127 0.656584 0.533403
64 1 0.6732 0.669929 0.604107
90 1 0.352894 0.262848 0.69107
10 2 0.394211 0.381109 0.677693
94 1 0.52334 0.349056 0.688889
74 1 0.383708 0.499467 0.716216
92 1 0.327145 0.597365 0.686754
58 1 0.498257 0.472729 0.688519
78 1 0.589173 0.549872 0.723324
14 2 0.630014 0.448681 0.680421
16 2 0.691509 0.598926 0.677776
76 1 0.393111 0.713165 0.706109
12 2 0.461089 0.607205 0.70282
60 1 0.486654 0.727348 0.668512
96 1 0.577299 0.667488 0.687501
80 1 0.660335 0.688194 0.626159
ITEM: TIMESTEP
600
ITEM: NUMBER OF ATOMS
96
ITEM: BOX BOUNDS pp pp pp
-5.2711189999999997e+00 1.4128881000000000e+01
-5.2711189999999997e+00 1.4128881000000000e+01
-8.1525440000000007e+00 2.3347456000000001e+01
ITEM: ATOMS id type xs ys zs
33 1 0.364822 0.276674 0.29605
49 1 0.317359 0.335032 0.349966
37 1 0.524106 0.407594 0.264684
1 2 0.408911 0.390852 0.298559
69 1 0.713669 0.370904 0.312274
35 1 0.394827 0.600585 0.238486
51 1 0.373122 0.514988 0.285055
39 1 0.525465 0.609615 0.32569
67 1 0.525397 0.609961 0.325732
81 1 0.476052 0.487674 0.334684
5 2 0.60732 0.437055 0.319403
55 1 0.637807 0.566863 0.315024
85 1 0.735058 0.500086 0.335062
3 2 0.404125 0.638942 0.308789
83 1 0.487067 0.730436 0.339964
71 1 0.725612 0.620796 0.33458
7 2 0.622497 0.697241 0.332687
41 1 0.361534 0.266814 0.405335
65 1 0.511171 0.350084 0.341483
25 2 0.402402 0.395827 0.395882
53 1 0.628604 0.314295 0.350484
45 1 0.637348 0.286979 0.421352
19 2 0.386952 0.552895 0.386661
73 1 0.283677 0.480315 0.428229
47 1 0.56001 0.533861 0.377389
29 2 0.556882 0.396909 0.410241
57 1 0.42233 0.430611 0.437312
77 1 0.601352 0.45449 0.417936
95 1 0.497941 0.526971 0.44342
21 2 0.716315 0.399442 0.38792
23 2 0.678863 0.559487 0.398865
43 1 0.297131 0.641571 0.35645
27 2 0.383086 0.713612 0.397906
91 1 0.290967 0.617009 0.429936
31 2 0.531114 0.65598 0.40572
87 1 0.654858 0.713541 0.410216
89 1 0.322405 0.251917 0.472688
9 2 0.315697 0.378606 0.488732
17 2 0.44761 0.288294 0.464303
93 1 0.579101 0.26672 0.490842
66 1 0.492443 0.284525 0.545246
38 1 0.638236 0.303339 0.555911
13 2 0.668714 0.366096 0.480883
70 1 0.751838 0.332887 0.541245
11 2 0.361533 0.536781 0.48105
40 1 0.515544 0.492598 0.517836
6 2 0.494489 0.410717 0.508058
61 1 0.74149 0.474292 0.458374
15 2 0.620977 0.52169 0.487526
72 1 0.731392 0.455291 0.529196
86 1 0.613734 0.425844 0.552597
36 1 0.252811 0.612643 0.498877
4 2 0.353383 0.694313 0.490232
59 1 0.46529 0.747106 0.4576
8 2 0.504497 0.637183 0.504079
79 1 0.58175 0.727696 0.47274
63 1 0.66965 0.635311 0.465211
75 1 0.318729 0.796648 0.446288
34 1 0.253823 0.353142 0.566788
42 1 0.312668 0.286749 0.625984
26 2 0.385181 0.364402 0.576567
18 2 0.445772 0.252501 0.636749
54 1 0.568301 0.245659 0.606153
30 2 0.541485 0.36996 0.613894
46 1 0.630851 0.315859 0.665743
22 2 0.705798 0.383219 0.60828
2 2 0.280214 0.485371 0.56174
50 1 0.288462 0.40955 0.631451
44 1 0.276897 0.586901 0.620093
20 2 0.389088 0.514686 0.632296
48 1 0.567584 0.555193 0.656212
82 1 0.415701 0.505318 0.55238
56 1 0.521761 0.504122 0.595256
24 2 0.658383 0.536192 0.588831
62 1 0.750442 0.49145 0.64797
52 1 0.328948 0.610775 0.555537
28 2 0.382929 0.671093 0.626431
68 1 0.415384 0.630462 0.556554
84 1 0.435604 0.701666 0.557958
32 2 0.542637 0.650079 0.598096
88 1 0.630352 0.651639 0.531362
64 1 0.678431 0.672477 0.603189
90 1 0.355907 0.26637 0.693247
10 2 0.399395 0.381502 0.678654
94 1 0.527687 0.355091 0.691289
74 1 0.393506 0.50257 0.715198
92 1 0.330401 0.593874 0.685773
58 1 0.500794 0.473214 0.674355
78 1 0.588673 0.57605 0.718529
14 2 0.636406 0.452215 0.682477
16 2 0.694205 0.606647 0.668928
76 1 0.395671 0.719441 0.699047
12 2 0.465933 0.610897 0.700337
60 1 0.48393 0.727558 0.657251
96 1 0.588702 0.672683 0.680405
80 1 0.661724 0.701637 0.621884
ITEM: TIMESTEP
700
ITEM: NUMBER OF ATOMS
96
ITEM: BOX BOUNDS pp pp pp
-5.2711189999999997e+00 1.4128881000000000e+01
-5.2711189999999997e+00 1.4128881000000000e+01
-8.1525440000000007e+00 2.3347456000000001e+01
ITEM: ATOMS id type xs ys zs
33 1 0.358118 0.285336 0.290739
49 1 0.316902 0.341664 0.349179
37 1 0.520491 0.391343 0.271005
1 2 0.409572 0.395963 0.302931
69 1 0.706278 0.368613 0.309548
35 1 0.412359 0.607772 0.238927
51 1 0.390066 0.522407 0.287814
39 1 0.536416 0.62101 0.328309
67 1 0.535146 0.599785 0.324351
81 1 0.472668 0.498733 0.337746
5 2 0.602561 0.439748 0.322386
55 1 0.642999 0.560627 0.31474
85 1 0.73826 0.49852 0.33206
3 2 0.419413 0.646601 0.311165
83 1 0.500886 0.736857 0.343157
71 1 0.746498 0.620533 0.334314
7 2 0.638218 0.68654 0.337307
41 1 0.33587 0.281679 0.412677
65 1 0.511796 0.348946 0.344013
25 2 0.404792 0.39976 0.400576
53 1 0.637955 0.327422 0.348889
45 1 0.634992 0.289258 0.419603
19 2 0.389041 0.560936 0.391505
73 1 0.284939 0.494254 0.421547
47 1 0.559507 0.538179 0.377105
29 2 0.565446 0.405313 0.413277
57 1 0.41933 0.428646 0.438118
77 1 0.603846 0.447508 0.417215
95 1 0.497528 0.524988 0.440566
21 2 0.721027 0.402032 0.385902
23 2 0.678528 0.560918 0.39479
43 1 0.304105 0.645728 0.351566
27 2 0.387253 0.724542 0.39577
91 1 0.282959 0.619333 0.426719
31 2 0.53212 0.658452 0.4053
87 1 0.648947 0.714073 0.409909
89 1 0.318543 0.253276 0.480624
9 2 0.316954 0.380463 0.486694
17 2 0.44376 0.283228 0.461487
93 1 0.574749 0.263536 0.485131
66 1 0.494143 0.284613 0.543831
38 1 0.636441 0.298379 0.552639
13 2 0.669411 0.36197 0.481756
70 1 0.755514 0.338865 0.541453
11 2 0.348982 0.532898 0.483432
40 1 0.501049 0.478962 0.510658
6 2 0.48946 0.405583 0.511139
61 1 0.74345 0.481193 0.450478
15 2 0.618713 0.520074 0.485602
72 1 0.727008 0.458021 0.53245
86 1 0.605257 0.422089 0.549272
36 1 0.245829 0.612934 0.499094
4 2 0.349022 0.688913 0.490987
59 1 0.464634 0.742629 0.464164
8 2 0.496348 0.621141 0.501877
79 1 0.584518 0.718753 0.475588
63 1 0.699657 0.629151 0.459634
75 1 0.31174 0.786519 0.444655
34 1 0.253565 0.349569 0.570765
42 1 0.316673 0.2866 0.632338
26 2 0.385053 0.360303 0.579873
18 2 0.451268 0.252695 0.64154
54 1 0.570026 0.237814 0.609533
30 2 0.545919 0.366337 0.612786
46 1 0.640375 0.313863 0.658413
22 2 0.702045 0.39164 0.605628
2 2 0.270082 0.47823 0.564929
50 1 0.288106 0.404598 0.636294
44 1 0.270088 0.584865 0.622391
20 2 0.379614 0.506236 0.636076
48 1 0.570192 0.566114 0.661495
82 1 0.406589 0.494802 0.556407
56 1 0.516321 0.502027 0.591884
24 2 0.651718 0.538183 0.582394
62 1 0.751003 0.498395 0.638271
52 1 0.325671 0.600578 0.556895
28 2 0.376715 0.669451 0.626021
68 1 0.395929 0.614919 0.55416
84 1 0.424676 0.713301 0.552552
32 2 0.537868 0.652538 0.600199
88 1 0.624995 0.634798 0.523697
64 1 0.669982 0.666131 0.588791
90 1 0.36129 0.256012 0.698019
10 2 0.403184 0.37435 0.684
94 1 0.536167 0.357369 0.696421
74 1 0.400138 0.500608 0.716397
92 1 0.332984 0.595608 0.691617
58 1 0.500763 0.471491 0.669956
78 1 0.598987 0.577495 0.709233
14 2 0.634619 0.456338 0.683141
16 2 0.697747 0.610381 0.662743
76 1 0.399942 0.724713 0.694825
12 2 0.471131 0.618932 0.690696
60 1 0.474787 0.741251 0.657099
96 1 0.595701 0.683668 0.676385
80 1 0.653556 0.705289 0.627396
ITEM: TIMESTEP
800
ITEM: NUMBER OF ATOMS
96
ITEM: BOX BOUNDS pp pp pp
-5.2711189999999997e+00 1.4128881000000000e+01
-5.2711189999999997e+00 1.4128881000000000e+01
-8.1525440000000007e+00 2.3347456000000001e+01
ITEM: ATOMS id type xs ys zs
33 1 0.341471 0.310629 0.282396
49 1 0.320143 0.353262 0.350999
37 1 0.523939 0.377193 0.273696
1 2 0.412848 0.400872 0.305637
69 1 0.708158 0.380006 0.312142
35 1 0.420165 0.621333 0.237137
51 1 0.396956 0.528345 0.282033
39 1 0.540315 0.601369 0.322882
67 1 0.541284 0.613883 0.331194
81 1 0.472404 0.501177 0.338832
5 2 0.599867 0.438296 0.32326
55 1 0.643795 0.563149 0.302252
85 1 0.731836 0.488627 0.325782
3 2 0.42568 0.655043 0.310122
83 1 0.514772 0.737389 0.344799
71 1 0.761577 0.608727 0.342963
7 2 0.648442 0.6827 0.342837
41 1 0.319613 0.307341 0.42234
65 1 0.503598 0.345705 0.354376
25 2 0.41034 0.409936 0.402161
53 1 0.62537 0.32125 0.35512
45 1 0.637101 0.289007 0.422867
19 2 0.390271 0.569351 0.39545
73 1 0.280679 0.498647 0.41533
47 1 0.559737 0.552438 0.369584
29 2 0.567125 0.405112 0.414403
57 1 0.414273 0.437826 0.441721
77 1 0.608622 0.44467 0.416945
95 1 0.503617 0.520017 0.43036
21 2 0.726057 0.400517 0.387333
23 2 0.683347 0.552848 0.392154
43 1 0.310403 0.65653 0.354044
27 2 0.387513 0.725815 0.399267
91 1 0.279875 0.622237 0.426487
31 2 0.529324 0.65657 0.408197
87 1 0.671593 0.680087 0.426113
89 1 0.329204 0.244281 0.490289
9 2 0.318924 0.373425 0.488239
17 2 0.445629 0.282239 0.461114
93 1 0.571451 0.263049 0.485381
66 1 0.489161 0.281242 0.542307
38 1 0.624754 0.309516 0.552056
13 2 0.662036 0.36412 0.48
70 1 0.74544 0.336523 0.537769
11 2 0.333749 0.525207 0.483633
40 1 0.504403 0.48461 0.510039
6 2 0.486792 0.408251 0.51093
61 1 0.751877 0.496299 0.455622
15 2 0.626612 0.52408 0.481996
72 1 0.72637 0.457719 0.527195
86 1 0.606542 0.43285 0.545438
36 1 0.240232 0.612422 0.498602
4 2 0.347071 0.683399 0.487389
59 1 0.464401 0.73809 0.471565
8 2 0.490684 0.609969 0.500502
79 1 0.578733 0.714865 0.468353
63 1 0.725293 0.603805 0.465944
75 1 0.303412 0.785486 0.446161
34 1 0.261002 0.334944 0.575955
42 1 0.325395 0.281639 0.641371
26 2 0.385562 0.360736 0.58485
18 2 0.462085 0.247674 0.646508
54 1 0.572762 0.241016 0.602678
30 2 0.538713 0.368533 0.609502
46 1 0.634897 0.314834 0.655616
22 2 0.705025 0.392189 0.601579
2 2 0.268225 0.473267 0.572954
50 1 0.285459 0.397031 0.642633
44 1 0.267717 0.580008 0.625756
20 2 0.377471 0.504588 0.638896
48 1 0.575136 0.565006 0.652374
82 1 0.403226 0.495261 0.556906
56 1 0.513381 0.506893 0.591067
24 2 0.647209 0.542145 0.583281
62 1 0.753743 0.501442 0.636155
52 1 0.313663 0.598786 0.556806
28 2 0.365535 0.674475 0.61774
68 1 0.401329 0.612947 0.555216
84 1 0.439503 0.720265 0.545179
32 2 0.524549 0.654506 0.595277
88 1 0.632662 0.642448 0.523183
64 1 0.664738 0.677906 0.587283
90 1 0.377289 0.247636 0.705017
10 2 0.408154 0.372941 0.688787
94 1 0.53985 0.357556 0.691413
74 1 0.408344 0.509239 0.718733
92 1 0.331807 0.597976 0.6889
58 1 0.499186 0.469084 0.670568
78 1 0.59571 0.574586 0.708421
14 2 0.636622 0.450167 0.675395
16 2 0.699436 0.614044 0.656185
76 1 0.398944 0.723906 0.689344
12 2 0.467198 0.615894 0.686839
60 1 0.472251 0.736447 0.659656
96 1 0.57942 0.678556 0.669523
80 1 0.629054 0.713174 0.626452
ITEM: TIMESTEP
900
ITEM: NUMBER OF ATOMS
96
ITEM: BOX BOUNDS pp pp pp
-5.2711189999999997e+00 1.4128881000000000e+01
-5.2711189999999997e+00 1.4128881000000000e+01
-8.1525440000000007e+00 2.3347456000000001e+01
ITEM: ATOMS id type xs ys zs
33 1 0.319595 0.344071 0.286644
49 1 0.319567 0.362409 0.357574
37 1 0.527783 0.378854 0.272808
1 2 0.4175 0.408958 0.305003
69 1 0.715919 0.370574 0.313205
35 1 0.416536 0.633354 0.240604
51 1 0.40249 0.53678 0.279146
39 1 0.545892 0.622327 0.330551
67 1 0.543002 0.61509 0.323226
81 1 0.470639 0.515919 0.341247