ITEM: TIMESTEP
0
ITEM: NUMBER OF ATOMS
64
ITEM: BOX BOUNDS pp pp pp
-4.0700010000000004e+00 1.2130000000000001e+01
-4.0700010000000004e+00 1.2130000000000001e+01
-4.0700010000000004e+00 1.2130000000000001e+01
ITEM: ATOMS id type xs ys zs
1 2 0.458456 0.416912 0.313426
2 2 0.458456 0.416912 0.562191
9 2 0.292778 0.458456 0.437809
10 2 0.292778 0.458456 0.686574
17 2 0.334322 0.292778 0.313426
18 2 0.334322 0.292778 0.562191
25 2 0.292778 0.334322 0.437809
26 2 0.292778 0.334322 0.686574
33 2 0.458456 0.292778 0.313426
34 2 0.458456 0.292778 0.562191
41 2 0.416912 0.458456 0.437809
42 2 0.416912 0.458456 0.686574
49 1 0.334156 0.417078 0.313426
50 1 0.334156 0.417078 0.562191
57 1 0.417078 0.334156 0.437809
58 1 0.417078 0.334156 0.686574
5 2 0.707222 0.416912 0.313426
6 2 0.707222 0.416912 0.562191
13 2 0.541544 0.458456 0.437809
14 2 0.541544 0.458456 0.686574
21 2 0.583088 0.292778 0.313426
22 2 0.583088 0.292778 0.562191
29 2 0.541544 0.334322 0.437809
30 2 0.541544 0.334322 0.686574
37 2 0.707222 0.292778 0.313426
38 2 0.707222 0.292778 0.562191
45 2 0.665678 0.458456 0.437809
46 2 0.665678 0.458456 0.686574
53 1 0.582922 0.417078 0.313426
54 1 0.582922 0.417078 0.562191
61 1 0.665844 0.334156 0.437809
62 1 0.665844 0.334156 0.686574
3 2 0.458456 0.665678 0.313426
4 2 0.458456 0.665678 0.562191
11 2 0.292778 0.707222 0.437809
12 2 0.292778 0.707222 0.686574
19 2 0.334322 0.541544 0.313426
20 2 0.334322 0.541544 0.562191
27 2 0.292778 0.583088 0.437809
28 2 0.292778 0.583088 0.686574
35 2 0.458456 0.541544 0.313426
36 2 0.458456 0.541544 0.562191
43 2 0.416912 0.707222 0.437809
44 2 0.416912 0.707222 0.686574
51 1 0.334156 0.665844 0.313426
52 1 0.334156 0.665844 0.562191
59 1 0.417078 0.582922 0.437809
60 1 0.417078 0.582922 0.686574
7 2 0.707222 0.665678 0.313426
8 2 0.707222 0.665678 0.562191
15 2 0.541544 0.707222 0.437809
16 2 0.541544 0.707222 0.686574
23 2 0.583088 0.541544 0.313426
24 2 0.583088 0.541544 0.562191
31 2 0.541544 0.583088 0.437809
32 2 0.541544 0.583088 0.686574
39 2 0.707222 0.541544 0.313426
40 2 0.707222 0.541544 0.562191
47 2 0.665678 0.707222 0.437809
48 2 0.665678 0.707222 0.686574
55 1 0.582922 0.665844 0.313426
56 1 0.582922 0.665844 0.562191
63 1 0.665844 0.582922 0.437809
64 1 0.665844 0.582922 0.686574
ITEM: TIMESTEP
100
ITEM: NUMBER OF ATOMS
64
ITEM: BOX BOUNDS pp pp pp
-4.0700010000000004e+00 1.2130000000000001e+01
-4.0700010000000004e+00 1.2130000000000001e+01
-4.0700010000000004e+00 1.2130000000000001e+01
ITEM: ATOMS id type xs ys zs
1 2 0.471473 0.499643 0.379778
2 2 0.412411 0.438081 0.48249
9 2 0.412857 0.417909 0.530755
10 2 0.329722 0.600328 0.691393
17 2 0.408141 0.292749 0.354114
18 2 0.422358 0.399288 0.545671
25 2 0.396716 0.434115 0.457021
26 2 0.413328 0.390222 0.62504
33 2 0.573756 0.377373 0.295378
34 2 0.416934 0.421606 0.475749
41 2 0.440089 0.4551 0.451219
42 2 0.507272 0.449165 0.614251
49 1 0.358892 0.333328 0.364876
50 1 0.431023 0.429018 0.605537
57 1 0.430514 0.455058 0.39223
58 1 0.332861 0.373688 0.655242
5 2 0.73131 0.427817 0.393661
6 2 0.709442 0.347611 0.407049
13 2 0.50264 0.453024 0.383106
14 2 0.527075 0.485616 0.684917
21 2 0.527935 0.297797 0.425705
22 2 0.586706 0.307816 0.396806
29 2 0.474747 0.339951 0.453185
30 2 0.571321 0.40086 0.633501
37 2 0.591643 0.345711 0.37466
38 2 0.555136 0.29608 0.46845
45 2 0.627619 0.471436 0.461395
46 2 0.592199 0.437096 0.642752
53 1 0.667365 0.366204 0.399125
54 1 0.683858 0.339813 0.491699
61 1 0.714061 0.40033 0.421428
62 1 0.696919 0.419275 0.65826
3 2 0.431348 0.625308 0.405
4 2 0.467624 0.608019 0.564415
11 2 0.298738 0.579771 0.52486
12 2 0.305414 0.699153 0.559214
19 2 0.384799 0.598141 0.375016
20 2 0.388228 0.468186 0.549847
27 2 0.300229 0.524758 0.607471
28 2 0.300395 0.55953 0.572445
35 2 0.505335 0.495045 0.313616
36 2 0.484807 0.569934 0.58766
43 2 0.374769 0.744909 0.603022
44 2 0.341788 0.694742 0.608107
51 1 0.449091 0.695046 0.330495
52 1 0.411249 0.720559 0.595049
59 1 0.354962 0.543149 0.532982
60 1 0.357629 0.662028 0.633014
7 2 0.669124 0.527643 0.354796
8 2 0.6831 0.519632 0.550014
15 2 0.476698 0.638661 0.544588
16 2 0.508641 0.610397 0.574151
23 2 0.586838 0.494448 0.391906
24 2 0.615817 0.438145 0.535031
31 2 0.441481 0.627631 0.465561
32 2 0.488152 0.592343 0.595185
39 2 0.632701 0.478174 0.461644
40 2 0.636757 0.488691 0.473133
47 2 0.555825 0.658348 0.426083
48 2 0.558661 0.73415 0.554143
55 1 0.636125 0.621837 0.405074
56 1 0.693445 0.552244 0.578618
63 1 0.549481 0.706187 0.464351
64 1 0.592431 0.620085 0.647067
ITEM: TIMESTEP
200
ITEM: NUMBER OF ATOMS
64
ITEM: BOX BOUNDS pp pp pp
-4.0700010000000004e+00 1.2130000000000001e+01
-4.0700010000000004e+00 1.2130000000000001e+01
-4.0700010000000004e+00 1.2130000000000001e+01
ITEM: ATOMS id type xs ys zs
1 2 0.472525 0.488271 0.379998
2 2 0.413814 0.440759 0.470676
9 2 0.412346 0.413013 0.540114
10 2 0.328352 0.612401 0.697712
17 2 0.404985 0.28427 0.351407
18 2 0.429237 0.39467 0.549443
25 2 0.402377 0.437671 0.452366
26 2 0.428155 0.382361 0.617239
33 2 0.578721 0.37656 0.297594
34 2 0.411809 0.425917 0.474414
41 2 0.437415 0.463277 0.449367
42 2 0.517743 0.440916 0.615426
49 1 0.346271 0.331809 0.370226
50 1 0.430398 0.430869 0.594891
57 1 0.427473 0.471975 0.391138
58 1 0.31451 0.369104 0.651217
5 2 0.730345 0.430096 0.400208
6 2 0.712648 0.354455 0.411072
13 2 0.473352 0.456136 0.36909
14 2 0.542626 0.488174 0.678153
21 2 0.536753 0.292275 0.443252
22 2 0.588496 0.316267 0.364956
29 2 0.474118 0.342497 0.441226
30 2 0.571536 0.400991 0.629752
37 2 0.570641 0.330648 0.3951
38 2 0.552267 0.293553 0.465182
45 2 0.625327 0.477779 0.459132
46 2 0.597666 0.440404 0.647018
53 1 0.668354 0.356195 0.39405
54 1 0.691521 0.341667 0.480342
61 1 0.731255 0.419362 0.438117
62 1 0.70017 0.409524 0.669618
3 2 0.420705 0.632242 0.413591
4 2 0.458456 0.606316 0.569484
11 2 0.289286 0.577485 0.535422
12 2 0.284372 0.69706 0.544763
19 2 0.36645 0.611397 0.390088
20 2 0.394345 0.461005 0.554242
27 2 0.308014 0.518859 0.626634
28 2 0.292378 0.567938 0.561598
35 2 0.515099 0.490644 0.30459
36 2 0.486998 0.570251 0.591174
43 2 0.384516 0.74404 0.594289
44 2 0.342049 0.682927 0.585294
51 1 0.44836 0.716892 0.324296
52 1 0.428036 0.725715 0.578908
59 1 0.35727 0.535396 0.549165
60 1 0.352989 0.673878 0.628897
7 2 0.654103 0.533966 0.373699
8 2 0.699155 0.512745 0.562681
15 2 0.474858 0.63316 0.552357
16 2 0.509025 0.608591 0.57884
23 2 0.595928 0.507168 0.403033
24 2 0.619732 0.437599 0.546894
31 2 0.436021 0.631538 0.445474
32 2 0.488986 0.590429 0.595672
39 2 0.629708 0.479767 0.462171
40 2 0.644263 0.477554 0.474218
47 2 0.545321 0.657357 0.421787
48 2 0.569639 0.720854 0.52344
55 1 0.633134 0.628716 0.419352
56 1 0.709026 0.533081 0.582065
63 1 0.551517 0.699816 0.465122
64 1 0.587058 0.62175 0.651269
ITEM: TIMESTEP
300
ITEM: NUMBER OF ATOMS
64
ITEM: BOX BOUNDS pp pp pp
-4.0700010000000004e+00 1.2130000000000001e+01
-4.0700010000000004e+00 1.2130000000000001e+01
-4.0700010000000004e+00 1.2130000000000001e+01
ITEM: ATOMS id type xs ys zs
1 2 0.464975 0.481017 0.379292
2 2 0.409517 0.43832 0.462803
9 2 0.413451 0.411088 0.544158
10 2 0.327251 0.620922 0.701437
17 2 0.403994 0.280834 0.345977
18 2 0.430402 0.394713 0.553903
25 2 0.402904 0.441673 0.452867
26 2 0.43275 0.380467 0.612967
33 2 0.58509 0.379217 0.298329
34 2 0.412427 0.429685 0.47585
41 2 0.434844 0.467817 0.445952
42 2 0.51984 0.437685 0.616436
49 1 0.34715 0.33618 0.370436
50 1 0.432787 0.428698 0.589663
57 1 0.426235 0.478696 0.393028
58 1 0.308242 0.361127 0.645119
5 2 0.733123 0.428827 0.405525
6 2 0.715734 0.362109 0.415512
13 2 0.458384 0.455306 0.368392
14 2 0.54939 0.48823 0.677557
21 2 0.540503 0.291892 0.452388
22 2 0.588913 0.324325 0.347825
29 2 0.478376 0.340939 0.437292
30 2 0.574061 0.406892 0.635645
37 2 0.563503 0.323993 0.401804
38 2 0.549686 0.294953 0.461839
45 2 0.625838 0.482151 0.462551
46 2 0.601016 0.436869 0.648238
53 1 0.671181 0.350234 0.392247
54 1 0.691954 0.346413 0.474969
61 1 0.735928 0.428258 0.442364
62 1 0.702001 0.403031 0.673804
3 2 0.420161 0.633942 0.419898
4 2 0.456614 0.604835 0.574869
11 2 0.284866 0.578271 0.541634
12 2 0.295148 0.69339 0.553884
19 2 0.361788 0.619096 0.388717
20 2 0.400233 0.450879 0.559191
27 2 0.316616 0.516202 0.644872
28 2 0.289142 0.573056 0.559395
35 2 0.515835 0.488115 0.299128
36 2 0.487834 0.569662 0.595972
43 2 0.387149 0.744094 0.586078
44 2 0.312794 0.68493 0.559585
51 1 0.454951 0.731384 0.31842
52 1 0.434739 0.726826 0.566397
59 1 0.357712 0.535629 0.557638
60 1 0.347655 0.678029 0.630562
7 2 0.641876 0.539198 0.390302
8 2 0.708052 0.509698 0.570664
15 2 0.473511 0.628619 0.561263
16 2 0.506168 0.609682 0.580656
23 2 0.598583 0.515395 0.415035
24 2 0.62109 0.434226 0.551827
31 2 0.426775 0.634174 0.429427
32 2 0.488264 0.590053 0.59614
39 2 0.626323 0.486839 0.459423
40 2 0.639893 0.471598 0.47072
47 2 0.54045 0.653731 0.416772
48 2 0.572604 0.711238 0.508061
55 1 0.640709 0.623055 0.407594
56 1 0.716724 0.521566 0.583268
63 1 0.555211 0.693364 0.462402
64 1 0.58908 0.616664 0.654042
ITEM: TIMESTEP
400
ITEM: NUMBER OF ATOMS
64
ITEM: BOX BOUNDS pp pp pp
-4.0700010000000004e+00 1.2130000000000001e+01
-4.0700010000000004e+00 1.2130000000000001e+01
-4.0700010000000004e+00 1.2130000000000001e+01
ITEM: ATOMS id type xs ys zs
1 2 0.464774 0.480805 0.379302
2 2 0.409327 0.438371 0.462581
9 2 0.413438 0.411011 0.544284
10 2 0.3273 0.621122 0.701503
17 2 0.404052 0.280796 0.345859
18 2 0.43043 0.394831 0.55392
25 2 0.402963 0.441675 0.452951
26 2 0.432776 0.380438 0.612901
33 2 0.58512 0.379263 0.298083
34 2 0.412436 0.429899 0.475931
41 2 0.434724 0.467852 0.445913
42 2 0.51977 0.437682 0.616631
49 1 0.347259 0.336307 0.370389
50 1 0.432901 0.428676 0.589715
57 1 0.42623 0.478792 0.39303
58 1 0.308095 0.361376 0.645006
5 2 0.733116 0.42875 0.405621
6 2 0.715856 0.362265 0.415696
13 2 0.458079 0.455334 0.36838
14 2 0.549395 0.488213 0.67771
21 2 0.540553 0.291758 0.452503
22 2 0.588941 0.324484 0.347583
29 2 0.478659 0.340694 0.437219
30 2 0.574045 0.406937 0.635925
37 2 0.563469 0.323707 0.401858
38 2 0.54948 0.294851 0.461758
45 2 0.626181 0.482611 0.462815
46 2 0.600976 0.436853 0.64812
53 1 0.671165 0.350122 0.392243
54 1 0.69174 0.346653 0.474817
61 1 0.735829 0.428378 0.442399
62 1 0.702047 0.402936 0.67388
3 2 0.420328 0.634011 0.419586
4 2 0.456675 0.604977 0.57478
11 2 0.284806 0.578232 0.541702
12 2 0.294854 0.693358 0.553813
19 2 0.361576 0.619134 0.389036
20 2 0.400208 0.450724 0.559199
27 2 0.317011 0.516266 0.645031
28 2 0.289101 0.573091 0.559314
35 2 0.51578 0.488156 0.299113
36 2 0.487767 0.569547 0.595816
43 2 0.387183 0.744057 0.585937
44 2 0.312355 0.684588 0.559559
51 1 0.455117 0.73145 0.318523
52 1 0.434787 0.726852 0.566235
59 1 0.357637 0.535608 0.557693
60 1 0.347781 0.678002 0.630426
7 2 0.641682 0.539331 0.390519
8 2 0.708175 0.509676 0.570775
15 2 0.47357 0.628466 0.56136
16 2 0.50626 0.609541 0.580795
23 2 0.598564 0.515446 0.415178
24 2 0.621109 0.43403 0.551821
31 2 0.42661 0.634346 0.429374
32 2 0.488362 0.590261 0.596139
39 2 0.626659 0.487392 0.459602
40 2 0.639922 0.471269 0.470278
47 2 0.540264 0.653635 0.416762
48 2 0.572539 0.711282 0.507779
55 1 0.640827 0.62278 0.407425
56 1 0.716991 0.521301 0.583237
63 1 0.555309 0.693114 0.462505
64 1 0.589067 0.616638 0.654164
ITEM: TIMESTEP
444
ITEM: NUMBER OF ATOMS
64
ITEM: BOX BOUNDS pp pp pp
-4.0700010000000004e+00 1.2130000000000001e+01
-4.0700010000000004e+00 1.2130000000000001e+01
-4.0700010000000004e+00 1.2130000000000001e+01
ITEM: ATOMS id type xs ys zs
1 2 0.464097 0.480121 0.379279
2 2 0.408731 0.438521 0.461839
9 2 0.413428 0.410757 0.54474
10 2 0.327473 0.621792 0.7017
17 2 0.404242 0.280665 0.345449
18 2 0.43047 0.395193 0.553959
25 2 0.40316 0.441692 0.453235
26 2 0.432845 0.380294 0.612675
33 2 0.58527 0.379412 0.297441
34 2 0.412491 0.430588 0.476186
41 2 0.43438 0.467966 0.44578
42 2 0.519632 0.437635 0.617323
49 1 0.347658 0.336714 0.370191
50 1 0.433273 0.428577 0.589875
57 1 0.42622 0.479116 0.393039
58 1 0.307554 0.362156 0.644655
5 2 0.733118 0.428499 0.405946
6 2 0.716236 0.362816 0.416273
13 2 0.457042 0.45542 0.368363
14 2 0.549367 0.488168 0.678178
21 2 0.540589 0.291386 0.453024
22 2 0.589048 0.325017 0.346798
29 2 0.479588 0.3399 0.436891
30 2 0.574017 0.407125 0.636861
37 2 0.56327 0.322764 0.402053
38 2 0.548942 0.294438 0.461393
45 2 0.627014 0.48418 0.462687
46 2 0.600875 0.43681 0.647738
53 1 0.671154 0.349683 0.392184
54 1 0.690998 0.347474 0.474286
61 1 0.735519 0.428771 0.4425
62 1 0.702189 0.402605 0.674113
3 2 0.420771 0.634294 0.418754
4 2 0.456889 0.605413 0.574459
11 2 0.284641 0.578049 0.541926
12 2 0.293962 0.693261 0.553621
19 2 0.360889 0.619285 0.389807
20 2 0.400184 0.450255 0.559243
27 2 0.318315 0.516524 0.645615
28 2 0.288928 0.573295 0.559089
35 2 0.515594 0.488282 0.299066
36 2 0.487641 0.569238 0.59534
43 2 0.387291 0.74395 0.585459
44 2 0.310862 0.683462 0.559489
51 1 0.455663 0.731708 0.31884
52 1 0.434932 0.726966 0.565695
59 1 0.357385 0.535532 0.557886
60 1 0.348192 0.67793 0.629991
7 2 0.641029 0.53968 0.391299
8 2 0.70857 0.509474 0.571286
15 2 0.473783 0.628073 0.56174
16 2 0.506467 0.608987 0.581209
23 2 0.598592 0.515908 0.415575
24 2 0.621147 0.433322 0.551779
31 2 0.426012 0.634906 0.429215
32 2 0.488646 0.590734 0.596093
39 2 0.627144 0.487828 0.460289
40 2 0.640712 0.4713 0.469741
47 2 0.539677 0.653318 0.416714
48 2 0.572375 0.711399 0.506806
55 1 0.641226 0.621959 0.406816
56 1 0.71796 0.520553 0.583067
63 1 0.555616 0.692294 0.462857
64 1 0.589021 0.616567 0.654579
