LAMMPS data file. CGCMM style. atom_style full generated by VMD/TopoTools v1.5 on Thu Dec 18 13:18:39 MSK 2025
 64 atoms
 144 bonds
 0 angles
 0 dihedrals
 0 impropers
 2 atom types
 1 bond types
 0 angle types
 0 dihedral types
 0 improper types
 -4.070001 12.130000  xlo xhi
 -4.070001 12.130000  ylo yhi
 -4.070001 12.130000  zlo zhi

# Pair Coeffs
#
# 1  Co
# 2  Ta

# Bond Coeffs
#
# 1  

 Masses

 1 58.933201 # Co
 2 180.947906 # Ta

 Atoms

1 1 2 0.000000 3.356990 2.683980 1.007500 # Ta 
2 1 2 0.000000 3.356990 2.683980 5.037500 # Ta 
3 1 2 0.000000 3.356990 6.713980 1.007500 # Ta 
4 1 2 0.000000 3.356990 6.713980 5.037500 # Ta 
5 1 2 0.000000 7.386990 2.683980 1.007500 # Ta 
6 1 2 0.000000 7.386990 2.683980 5.037500 # Ta 
7 1 2 0.000000 7.386990 6.713980 1.007500 # Ta 
8 1 2 0.000000 7.386990 6.713980 5.037500 # Ta 
9 1 2 0.000000 0.673010 3.356990 3.022500 # Ta 
10 1 2 0.000000 0.673010 3.356990 7.052500 # Ta 
11 1 2 0.000000 0.673010 7.386990 3.022500 # Ta 
12 1 2 0.000000 0.673010 7.386990 7.052500 # Ta 
13 1 2 0.000000 4.703010 3.356990 3.022500 # Ta 
14 1 2 0.000000 4.703010 3.356990 7.052500 # Ta 
15 1 2 0.000000 4.703010 7.386990 3.022500 # Ta 
16 1 2 0.000000 4.703010 7.386990 7.052500 # Ta 
17 1 2 0.000000 1.346020 0.673010 1.007500 # Ta 
18 1 2 0.000000 1.346020 0.673010 5.037500 # Ta 
19 1 2 0.000000 1.346020 4.703010 1.007500 # Ta 
20 1 2 0.000000 1.346020 4.703010 5.037500 # Ta 
21 1 2 0.000000 5.376020 0.673010 1.007500 # Ta 
22 1 2 0.000000 5.376020 0.673010 5.037500 # Ta 
23 1 2 0.000000 5.376020 4.703010 1.007500 # Ta 
24 1 2 0.000000 5.376020 4.703010 5.037500 # Ta 
25 1 2 0.000000 0.673010 1.346020 3.022500 # Ta 
26 1 2 0.000000 0.673010 1.346020 7.052500 # Ta 
27 1 2 0.000000 0.673010 5.376020 3.022500 # Ta 
28 1 2 0.000000 0.673010 5.376020 7.052500 # Ta 
29 1 2 0.000000 4.703010 1.346020 3.022500 # Ta 
30 1 2 0.000000 4.703010 1.346020 7.052500 # Ta 
31 1 2 0.000000 4.703010 5.376020 3.022500 # Ta 
32 1 2 0.000000 4.703010 5.376020 7.052500 # Ta 
33 1 2 0.000000 3.356990 0.673010 1.007500 # Ta 
34 1 2 0.000000 3.356990 0.673010 5.037500 # Ta 
35 1 2 0.000000 3.356990 4.703010 1.007500 # Ta 
36 1 2 0.000000 3.356990 4.703010 5.037500 # Ta 
37 1 2 0.000000 7.386990 0.673010 1.007500 # Ta 
38 1 2 0.000000 7.386990 0.673010 5.037500 # Ta 
39 1 2 0.000000 7.386990 4.703010 1.007500 # Ta 
40 1 2 0.000000 7.386990 4.703010 5.037500 # Ta 
41 1 2 0.000000 2.683980 3.356990 3.022500 # Ta 
42 1 2 0.000000 2.683980 3.356990 7.052500 # Ta 
43 1 2 0.000000 2.683980 7.386990 3.022500 # Ta 
44 1 2 0.000000 2.683980 7.386990 7.052500 # Ta 
45 1 2 0.000000 6.713980 3.356990 3.022500 # Ta 
46 1 2 0.000000 6.713980 3.356990 7.052500 # Ta 
47 1 2 0.000000 6.713980 7.386990 3.022500 # Ta 
48 1 2 0.000000 6.713980 7.386990 7.052500 # Ta 
49 1 1 0.000000 1.343333 2.686667 1.007500 # Co 
50 1 1 0.000000 1.343333 2.686667 5.037500 # Co 
51 1 1 0.000000 1.343333 6.716667 1.007500 # Co 
52 1 1 0.000000 1.343333 6.716667 5.037500 # Co 
53 1 1 0.000000 5.373333 2.686667 1.007500 # Co 
54 1 1 0.000000 5.373333 2.686667 5.037500 # Co 
55 1 1 0.000000 5.373333 6.716667 1.007500 # Co 
56 1 1 0.000000 5.373333 6.716667 5.037500 # Co 
57 1 1 0.000000 2.686667 1.343333 3.022500 # Co 
58 1 1 0.000000 2.686667 1.343333 7.052500 # Co 
59 1 1 0.000000 2.686667 5.373333 3.022500 # Co 
60 1 1 0.000000 2.686667 5.373333 7.052500 # Co 
61 1 1 0.000000 6.716667 1.343333 3.022500 # Co 
62 1 1 0.000000 6.716667 1.343333 7.052500 # Co 
63 1 1 0.000000 6.716667 5.373333 3.022500 # Co 
64 1 1 0.000000 6.716667 5.373333 7.052500 # Co 

 Bonds

1 1 1 41
2 1 1 33
3 1 1 53
4 1 1 35
5 1 1 49
6 1 2 41
7 1 2 34
8 1 2 54
9 1 2 36
10 1 2 42
11 1 2 50
12 1 3 55
13 1 3 43
14 1 3 51
15 1 3 35
16 1 4 52
17 1 4 43
18 1 4 36
19 1 4 56
20 1 4 44
21 1 5 37
22 1 5 39
23 1 5 45
24 1 5 53
25 1 6 45
26 1 6 38
27 1 6 40
28 1 6 46
29 1 6 54
30 1 7 55
31 1 7 39
32 1 7 47
33 1 8 40
34 1 8 48
35 1 8 47
36 1 8 56
37 1 9 27
38 1 9 41
39 1 9 50
40 1 9 25
41 1 9 49
42 1 10 28
43 1 10 42
44 1 10 26
45 1 10 50
46 1 11 43
47 1 11 51
48 1 11 52
49 1 11 27
50 1 12 52
51 1 12 28
52 1 12 44
53 1 13 31
54 1 13 45
55 1 13 54
56 1 13 41
57 1 13 29
58 1 13 53
59 1 14 32
60 1 14 46
61 1 14 42
62 1 14 30
63 1 14 54
64 1 15 55
65 1 15 47
66 1 15 56
67 1 15 43
68 1 15 31
69 1 16 32
70 1 16 48
71 1 16 56
72 1 16 44
73 1 17 25
74 1 17 49
75 1 17 33
76 1 18 50
77 1 18 34
78 1 18 26
79 1 18 25
80 1 19 27
81 1 19 35
82 1 19 51
83 1 19 49
84 1 20 36
85 1 20 52
86 1 20 28
87 1 20 27
88 1 20 50
89 1 21 29
90 1 21 33
91 1 21 53
92 1 21 37
93 1 22 34
94 1 22 54
95 1 22 38
96 1 22 30
97 1 22 29
98 1 23 31
99 1 23 35
100 1 23 39
101 1 23 55
102 1 23 53
103 1 24 36
104 1 24 40
105 1 24 56
106 1 24 32
107 1 24 31
108 1 24 54
109 1 25 57
110 1 26 58
111 1 27 59
112 1 28 60
113 1 29 61
114 1 29 57
115 1 30 62
116 1 30 58
117 1 31 63
118 1 31 59
119 1 32 64
120 1 32 60
121 1 33 57
122 1 34 58
123 1 34 57
124 1 35 59
125 1 36 60
126 1 36 59
127 1 37 61
128 1 38 62
129 1 38 61
130 1 39 63
131 1 40 64
132 1 40 63
133 1 41 59
134 1 41 57
135 1 42 60
136 1 42 58
137 1 43 59
138 1 44 60
139 1 45 63
140 1 45 61
141 1 46 64
142 1 46 62
143 1 47 63
144 1 48 64

