ITEM: TIMESTEP
0
ITEM: NUMBER OF ATOMS
54
ITEM: BOX BOUNDS pp pp pp
-2.3125000000000000e+00 9.9875000000000007e+00
-2.3125000000000000e+00 9.9875000000000007e+00
-2.3125000000000000e+00 9.9875000000000007e+00
ITEM: ATOMS id type xs ys zs
1 1 0.188008 0.188008 0.188008
28 2 0.312805 0.312805 0.312805
10 1 0.437602 0.188008 0.188008
37 2 0.562398 0.312805 0.312805
19 1 0.687195 0.188008 0.188008
46 2 0.811992 0.312805 0.312805
4 1 0.188008 0.437602 0.188008
31 2 0.312805 0.562398 0.312805
13 1 0.437602 0.437602 0.188008
40 2 0.562398 0.562398 0.312805
22 1 0.687195 0.437602 0.188008
49 2 0.811992 0.562398 0.312805
7 1 0.188008 0.687195 0.188008
34 2 0.312805 0.811992 0.312805
16 1 0.437602 0.687195 0.188008
43 2 0.562398 0.811992 0.312805
25 1 0.687195 0.687195 0.188008
52 2 0.811992 0.811992 0.312805
2 1 0.188008 0.188008 0.437602
29 2 0.312805 0.312805 0.562398
11 1 0.437602 0.188008 0.437602
38 2 0.562398 0.312805 0.562398
20 1 0.687195 0.188008 0.437602
47 2 0.811992 0.312805 0.562398
5 1 0.188008 0.437602 0.437602
32 2 0.312805 0.562398 0.562398
14 1 0.437602 0.437602 0.437602
41 2 0.562398 0.562398 0.562398
23 1 0.687195 0.437602 0.437602
50 2 0.811992 0.562398 0.562398
8 1 0.188008 0.687195 0.437602
35 2 0.312805 0.811992 0.562398
17 1 0.437602 0.687195 0.437602
44 2 0.562398 0.811992 0.562398
26 1 0.687195 0.687195 0.437602
53 2 0.811992 0.811992 0.562398
3 1 0.188008 0.188008 0.687195
30 2 0.312805 0.312805 0.811992
12 1 0.437602 0.188008 0.687195
39 2 0.562398 0.312805 0.811992
21 1 0.687195 0.188008 0.687195
48 2 0.811992 0.312805 0.811992
6 1 0.188008 0.437602 0.687195
33 2 0.312805 0.562398 0.811992
15 1 0.437602 0.437602 0.687195
42 2 0.562398 0.562398 0.811992
24 1 0.687195 0.437602 0.687195
51 2 0.811992 0.562398 0.811992
9 1 0.188008 0.687195 0.687195
36 2 0.312805 0.811992 0.811992
18 1 0.437602 0.687195 0.687195
45 2 0.562398 0.811992 0.811992
27 1 0.687195 0.687195 0.687195
54 2 0.811992 0.811992 0.811992
ITEM: TIMESTEP
100
ITEM: NUMBER OF ATOMS
54
ITEM: BOX BOUNDS pp pp pp
-2.3125000000000000e+00 9.9875000000000007e+00
-2.3125000000000000e+00 9.9875000000000007e+00
-2.3125000000000000e+00 9.9875000000000007e+00
ITEM: ATOMS id type xs ys zs
1 1 0.206414 0.206414 0.206414
28 2 0.31681 0.31681 0.31681
10 1 0.41614 0.197533 0.197533
37 2 0.566818 0.30074 0.30074
19 1 0.719014 0.20793 0.20793
46 2 0.822092 0.326318 0.326318
4 1 0.197533 0.41614 0.197533
31 2 0.30074 0.566817 0.30074
13 1 0.416808 0.416808 0.166149
40 2 0.55745 0.55745 0.280705
22 1 0.704086 0.411082 0.173908
49 2 0.809181 0.567497 0.302497
7 1 0.20793 0.719014 0.20793
34 2 0.326318 0.822091 0.326318
16 1 0.411082 0.704086 0.173907
43 2 0.567497 0.809182 0.302496
25 1 0.69623 0.696243 0.177265
52 2 0.807515 0.807515 0.323614
2 1 0.197533 0.197533 0.41614
29 2 0.30074 0.30074 0.566817
11 1 0.416808 0.166149 0.416808
38 2 0.55745 0.280705 0.55745
20 1 0.704086 0.173908 0.411082
47 2 0.809181 0.302497 0.567499
5 1 0.166149 0.416808 0.416808
32 2 0.280705 0.55745 0.55745
14 1 0.431782 0.431782 0.431782
41 2 0.545511 0.545511 0.545511
23 1 0.697976 0.450758 0.450758
50 2 0.865003 0.560337 0.560336
8 1 0.173908 0.704086 0.411082
35 2 0.302496 0.809181 0.567499
17 1 0.450757 0.697976 0.450758
44 2 0.560336 0.865003 0.560336
26 1 0.681393 0.681393 0.455958
53 2 0.811741 0.81171 0.566197
3 1 0.20793 0.20793 0.719014
30 2 0.326318 0.326318 0.822092
12 1 0.411082 0.173907 0.704085
39 2 0.567498 0.302497 0.809182
21 1 0.696236 0.177264 0.696244
48 2 0.807515 0.323613 0.807514
6 1 0.173907 0.411082 0.704086
33 2 0.302496 0.567498 0.809181
15 1 0.450758 0.450758 0.697975
42 2 0.560336 0.560337 0.865003
24 1 0.681393 0.455958 0.681393
51 2 0.811729 0.566194 0.811714
9 1 0.177267 0.696236 0.696227
36 2 0.323613 0.807514 0.807515
18 1 0.455958 0.681393 0.681393
45 2 0.5662 0.811724 0.811733
27 1 0.674935 0.674935 0.674935
54 2 0.801614 0.801649 0.801637
ITEM: TIMESTEP
200
ITEM: NUMBER OF ATOMS
54
ITEM: BOX BOUNDS pp pp pp
-2.3125000000000000e+00 9.9875000000000007e+00
-2.3125000000000000e+00 9.9875000000000007e+00
-2.3125000000000000e+00 9.9875000000000007e+00
ITEM: ATOMS id type xs ys zs
1 1 0.206398 0.206398 0.206398
28 2 0.31678 0.31678 0.31678
10 1 0.415968 0.197454 0.197454
37 2 0.566863 0.300549 0.300549
19 1 0.719528 0.208074 0.208074
46 2 0.82227 0.326609 0.326609
4 1 0.197454 0.415967 0.197454
31 2 0.300549 0.566863 0.300549
13 1 0.416567 0.416567 0.165967
40 2 0.557347 0.557347 0.280632
22 1 0.704342 0.410929 0.173898
49 2 0.809133 0.567689 0.302467
7 1 0.208074 0.719528 0.208074
34 2 0.326609 0.82227 0.326609
16 1 0.410929 0.704342 0.173898
43 2 0.567689 0.809133 0.302467
25 1 0.696296 0.696296 0.177268
52 2 0.807691 0.807691 0.323659
2 1 0.197454 0.197454 0.415968
29 2 0.300549 0.300549 0.566863
11 1 0.416567 0.165967 0.416567
38 2 0.557347 0.280633 0.557347
20 1 0.704342 0.173898 0.410929
47 2 0.809133 0.302467 0.567689
5 1 0.165967 0.416567 0.416567
32 2 0.280632 0.557347 0.557347
14 1 0.431566 0.431566 0.431566
41 2 0.545302 0.545302 0.545302
23 1 0.697899 0.450729 0.450729
50 2 0.865069 0.560234 0.560234
8 1 0.173898 0.704342 0.410929
35 2 0.302467 0.809133 0.567689
17 1 0.450729 0.697899 0.450729
44 2 0.560234 0.865069 0.560234
26 1 0.681364 0.681364 0.456075
53 2 0.811685 0.811685 0.566262
3 1 0.208074 0.208074 0.719528
30 2 0.326609 0.326609 0.82227
12 1 0.410929 0.173898 0.704342
39 2 0.567689 0.302467 0.809133
21 1 0.696296 0.177268 0.696296
48 2 0.807691 0.323659 0.807691
6 1 0.173898 0.410929 0.704342
33 2 0.302467 0.567689 0.809133
15 1 0.450729 0.450729 0.697899
42 2 0.560234 0.560234 0.865069
24 1 0.681364 0.456075 0.681364
51 2 0.811685 0.566262 0.811685
9 1 0.177268 0.696296 0.696296
36 2 0.323659 0.807691 0.807691
18 1 0.456075 0.681364 0.681364
45 2 0.566262 0.811685 0.811685
27 1 0.674781 0.674781 0.674781
54 2 0.801597 0.801597 0.801597
ITEM: TIMESTEP
242
ITEM: NUMBER OF ATOMS
54
ITEM: BOX BOUNDS pp pp pp
-2.3125000000000000e+00 9.9875000000000007e+00
-2.3125000000000000e+00 9.9875000000000007e+00
-2.3125000000000000e+00 9.9875000000000007e+00
ITEM: ATOMS id type xs ys zs
1 1 0.206398 0.206398 0.206398
28 2 0.316781 0.316781 0.316781
10 1 0.415968 0.197454 0.197454
37 2 0.566863 0.30055 0.300549
19 1 0.719528 0.208074 0.208074
46 2 0.82227 0.326609 0.326609
4 1 0.197454 0.415968 0.197454
31 2 0.300549 0.566863 0.300549
13 1 0.416567 0.416567 0.165967
40 2 0.557347 0.557347 0.280632
22 1 0.704342 0.410929 0.173898
49 2 0.809133 0.567689 0.302466
7 1 0.208074 0.719528 0.208074
34 2 0.326609 0.82227 0.326609
16 1 0.410929 0.704342 0.173898
43 2 0.567689 0.809133 0.302466
25 1 0.696296 0.696296 0.177268
52 2 0.807691 0.807691 0.323659
2 1 0.197454 0.197454 0.415968
29 2 0.30055 0.30055 0.566863
11 1 0.416567 0.165967 0.416567
38 2 0.557347 0.280632 0.557347
20 1 0.704342 0.173898 0.410929
47 2 0.809133 0.302466 0.567689
5 1 0.165967 0.416567 0.416567
32 2 0.280632 0.557347 0.557347
14 1 0.431566 0.431566 0.431566
41 2 0.545302 0.545302 0.545302
23 1 0.697899 0.450729 0.450729
50 2 0.865069 0.560234 0.560234
8 1 0.173898 0.704342 0.410929
35 2 0.302466 0.809133 0.567689
17 1 0.450729 0.697899 0.450729
44 2 0.560234 0.865069 0.560234
26 1 0.681363 0.681363 0.456075
53 2 0.811685 0.811685 0.566262
3 1 0.208074 0.208074 0.719528
30 2 0.326609 0.326609 0.82227
12 1 0.410929 0.173898 0.704342
39 2 0.567689 0.302466 0.809133
21 1 0.696296 0.177268 0.696296
48 2 0.807691 0.323659 0.807691
6 1 0.173898 0.410929 0.704342
33 2 0.302466 0.567689 0.809133
15 1 0.450729 0.450729 0.697899
42 2 0.560234 0.560234 0.865069
24 1 0.681363 0.456075 0.681363
51 2 0.811685 0.566262 0.811685
9 1 0.177268 0.696296 0.696296
36 2 0.323659 0.807691 0.807691
18 1 0.456075 0.681363 0.681363
45 2 0.566262 0.811685 0.811685
27 1 0.674781 0.674781 0.674781
54 2 0.801598 0.801598 0.801598
