ITEM: TIMESTEP
0
ITEM: NUMBER OF ATOMS
54
ITEM: BOX BOUNDS pp pp pp
-2.3125000000000000e+00 9.9875000000000007e+00
-2.3125000000000000e+00 9.9875000000000007e+00
-2.3125000000000000e+00 9.9875000000000007e+00
ITEM: ATOMS id type xs ys zs
1 1 0.206398 0.206398 0.206398
28 2 0.316781 0.316781 0.316781
10 1 0.415968 0.197454 0.197454
37 2 0.566863 0.30055 0.300549
19 1 0.719528 0.208074 0.208074
46 2 0.82227 0.326609 0.326609
4 1 0.197454 0.415968 0.197454
31 2 0.300549 0.566863 0.300549
13 1 0.416567 0.416567 0.165967
40 2 0.557347 0.557347 0.280632
22 1 0.704342 0.410929 0.173898
49 2 0.809133 0.567689 0.302466
7 1 0.208074 0.719528 0.208074
34 2 0.326609 0.82227 0.326609
16 1 0.410929 0.704342 0.173898
43 2 0.567689 0.809133 0.302466
25 1 0.696296 0.696296 0.177268
52 2 0.807691 0.807691 0.323659
2 1 0.197454 0.197454 0.415968
29 2 0.30055 0.30055 0.566863
11 1 0.416567 0.165967 0.416567
38 2 0.557347 0.280632 0.557347
20 1 0.704342 0.173898 0.410929
47 2 0.809133 0.302466 0.567689
5 1 0.165967 0.416567 0.416567
32 2 0.280632 0.557347 0.557347
14 1 0.431566 0.431566 0.431566
41 2 0.545302 0.545302 0.545302
23 1 0.697899 0.450729 0.450729
50 2 0.865069 0.560234 0.560234
8 1 0.173898 0.704342 0.410929
35 2 0.302466 0.809133 0.567689
17 1 0.450729 0.697899 0.450729
44 2 0.560234 0.865069 0.560234
26 1 0.681363 0.681363 0.456075
53 2 0.811685 0.811685 0.566262
3 1 0.208074 0.208074 0.719528
30 2 0.326609 0.326609 0.82227
12 1 0.410929 0.173898 0.704342
39 2 0.567689 0.302466 0.809133
21 1 0.696296 0.177268 0.696296
48 2 0.807691 0.323659 0.807691
6 1 0.173898 0.410929 0.704342
33 2 0.302466 0.567689 0.809133
15 1 0.450729 0.450729 0.697899
42 2 0.560234 0.560234 0.865069
24 1 0.681363 0.456075 0.681363
51 2 0.811685 0.566262 0.811685
9 1 0.177268 0.696296 0.696296
36 2 0.323659 0.807691 0.807691
18 1 0.456075 0.681363 0.681363
45 2 0.566262 0.811685 0.811685
27 1 0.674781 0.674781 0.674781
54 2 0.801598 0.801598 0.801598
ITEM: TIMESTEP
100
ITEM: NUMBER OF ATOMS
54
ITEM: BOX BOUNDS pp pp pp
-2.3125000000000000e+00 9.9875000000000007e+00
-2.3125000000000000e+00 9.9875000000000007e+00
-2.3125000000000000e+00 9.9875000000000007e+00
ITEM: ATOMS id type xs ys zs
1 1 0.206398 0.206398 0.206398
28 2 0.316781 0.316781 0.316781
10 1 0.415968 0.197454 0.197454
37 2 0.566863 0.30055 0.300549
19 1 0.719528 0.208074 0.208074
46 2 0.82227 0.326609 0.326609
4 1 0.197454 0.415968 0.197454
31 2 0.300549 0.566863 0.300549
13 1 0.416567 0.416567 0.165967
40 2 0.557347 0.557347 0.280632
22 1 0.704342 0.410929 0.173898
49 2 0.809133 0.567689 0.302466
7 1 0.208074 0.719528 0.208074
34 2 0.326609 0.82227 0.326609
16 1 0.410929 0.704342 0.173898
43 2 0.567689 0.809133 0.302466
25 1 0.696296 0.696296 0.177268
52 2 0.807691 0.807691 0.323659
2 1 0.197454 0.197454 0.415968
29 2 0.30055 0.30055 0.566863
11 1 0.416567 0.165967 0.416567
38 2 0.557347 0.280632 0.557347
20 1 0.704342 0.173898 0.410929
47 2 0.809133 0.302466 0.567689
5 1 0.165967 0.416567 0.416567
32 2 0.280632 0.557347 0.557347
14 1 0.431566 0.431566 0.431566
41 2 0.545302 0.545302 0.545302
23 1 0.697899 0.450729 0.450729
50 2 0.865069 0.560234 0.560234
8 1 0.173898 0.704342 0.410929
35 2 0.302466 0.809133 0.567689
17 1 0.450729 0.697899 0.450729
44 2 0.560234 0.865069 0.560234
26 1 0.681363 0.681363 0.456075
53 2 0.811685 0.811685 0.566262
3 1 0.208074 0.208074 0.719528
30 2 0.326609 0.326609 0.82227
12 1 0.410929 0.173898 0.704342
39 2 0.567689 0.302466 0.809133
21 1 0.696296 0.177268 0.696296
48 2 0.807691 0.323659 0.807691
6 1 0.173898 0.410929 0.704342
33 2 0.302466 0.567689 0.809133
15 1 0.450729 0.450729 0.697899
42 2 0.560234 0.560234 0.865069
24 1 0.681363 0.456075 0.681363
51 2 0.811685 0.566262 0.811685
9 1 0.177268 0.696296 0.696296
36 2 0.323659 0.807691 0.807691
18 1 0.456075 0.681363 0.681363
45 2 0.566262 0.811685 0.811685
27 1 0.674781 0.674781 0.674781
54 2 0.801598 0.801598 0.801598
ITEM: TIMESTEP
200
ITEM: NUMBER OF ATOMS
54
ITEM: BOX BOUNDS pp pp pp
-2.3125000000000000e+00 9.9875000000000007e+00
-2.3125000000000000e+00 9.9875000000000007e+00
-2.3125000000000000e+00 9.9875000000000007e+00
ITEM: ATOMS id type xs ys zs
1 1 0.206398 0.206398 0.206398
28 2 0.316781 0.316781 0.316781
10 1 0.415968 0.197454 0.197454
37 2 0.566863 0.30055 0.300549
19 1 0.719528 0.208074 0.208074
46 2 0.82227 0.326609 0.326609
4 1 0.197454 0.415968 0.197454
31 2 0.300549 0.566863 0.300549
13 1 0.416567 0.416567 0.165967
40 2 0.557347 0.557347 0.280632
22 1 0.704342 0.410929 0.173898
49 2 0.809133 0.567689 0.302466
7 1 0.208074 0.719528 0.208074
34 2 0.326609 0.82227 0.326609
16 1 0.410929 0.704342 0.173898
43 2 0.567689 0.809133 0.302466
25 1 0.696296 0.696296 0.177268
52 2 0.807691 0.807691 0.323659
2 1 0.197454 0.197454 0.415968
29 2 0.30055 0.30055 0.566863
11 1 0.416567 0.165967 0.416567
38 2 0.557347 0.280632 0.557347
20 1 0.704342 0.173898 0.410929
47 2 0.809133 0.302466 0.567689
5 1 0.165967 0.416567 0.416567
32 2 0.280632 0.557347 0.557347
14 1 0.431566 0.431566 0.431566
41 2 0.545302 0.545302 0.545302
23 1 0.697899 0.450729 0.450729
50 2 0.865069 0.560234 0.560234
8 1 0.173898 0.704342 0.410929
35 2 0.302466 0.809133 0.567689
17 1 0.450729 0.697899 0.450729
44 2 0.560234 0.865069 0.560234
26 1 0.681363 0.681363 0.456075
53 2 0.811685 0.811685 0.566262
3 1 0.208074 0.208074 0.719528
30 2 0.326609 0.326609 0.82227
12 1 0.410929 0.173898 0.704342
39 2 0.567689 0.302466 0.809133
21 1 0.696296 0.177268 0.696296
48 2 0.807691 0.323659 0.807691
6 1 0.173898 0.410929 0.704342
33 2 0.302466 0.567689 0.809133
15 1 0.450729 0.450729 0.697899
42 2 0.560234 0.560234 0.865069
24 1 0.681363 0.456075 0.681363
51 2 0.811685 0.566262 0.811685
9 1 0.177268 0.696296 0.696296
36 2 0.323659 0.807691 0.807691
18 1 0.456075 0.681363 0.681363
45 2 0.566262 0.811685 0.811685
27 1 0.674781 0.674781 0.674781
54 2 0.801598 0.801598 0.801598
ITEM: TIMESTEP
300
ITEM: NUMBER OF ATOMS
54
ITEM: BOX BOUNDS pp pp pp
-2.3125000000000000e+00 9.9875000000000007e+00
-2.3125000000000000e+00 9.9875000000000007e+00
-2.3125000000000000e+00 9.9875000000000007e+00
ITEM: ATOMS id type xs ys zs
1 1 0.206398 0.206398 0.206398
28 2 0.316781 0.316781 0.316781
10 1 0.415968 0.197454 0.197454
37 2 0.566863 0.30055 0.300549
19 1 0.719528 0.208074 0.208074
46 2 0.82227 0.326609 0.326609
4 1 0.197454 0.415968 0.197454
31 2 0.300549 0.566863 0.300549
13 1 0.416567 0.416567 0.165967
40 2 0.557347 0.557347 0.280632
22 1 0.704342 0.410929 0.173898
49 2 0.809133 0.567689 0.302466
7 1 0.208074 0.719528 0.208074
34 2 0.326609 0.82227 0.326609
16 1 0.410929 0.704342 0.173898
43 2 0.567689 0.809133 0.302466
25 1 0.696296 0.696296 0.177268
52 2 0.807691 0.807691 0.323659
2 1 0.197454 0.197454 0.415968
29 2 0.300549 0.30055 0.566863
11 1 0.416567 0.165967 0.416567
38 2 0.557347 0.280632 0.557347
20 1 0.704342 0.173898 0.410929
47 2 0.809133 0.302466 0.567689
5 1 0.165967 0.416567 0.416567
32 2 0.280632 0.557347 0.557347
14 1 0.431566 0.431566 0.431566
41 2 0.545302 0.545302 0.545302
23 1 0.697899 0.450729 0.450729
50 2 0.865069 0.560234 0.560234
8 1 0.173898 0.704342 0.410929
35 2 0.302466 0.809133 0.567689
17 1 0.450729 0.697899 0.450729
44 2 0.560234 0.865069 0.560234
26 1 0.681363 0.681363 0.456075
53 2 0.811685 0.811685 0.566262
3 1 0.208074 0.208074 0.719528
30 2 0.326609 0.326609 0.82227
12 1 0.410929 0.173898 0.704342
39 2 0.567689 0.302466 0.809133
21 1 0.696296 0.177268 0.696296
48 2 0.807691 0.323659 0.807691
6 1 0.173898 0.410929 0.704342
33 2 0.302466 0.567689 0.809133
15 1 0.450729 0.450729 0.697899
42 2 0.560234 0.560234 0.865069
24 1 0.681363 0.456075 0.681363
51 2 0.811685 0.566262 0.811685
9 1 0.177268 0.696296 0.696296
36 2 0.323659 0.807691 0.807691
18 1 0.456075 0.681363 0.681363
45 2 0.566262 0.811685 0.811685
27 1 0.674781 0.674781 0.674781
54 2 0.801598 0.801598 0.801598
ITEM: TIMESTEP
400
ITEM: NUMBER OF ATOMS
54
ITEM: BOX BOUNDS pp pp pp
-2.3125000000000000e+00 9.9875000000000007e+00
-2.3125000000000000e+00 9.9875000000000007e+00
-2.3125000000000000e+00 9.9875000000000007e+00
ITEM: ATOMS id type xs ys zs
1 1 0.206398 0.206398 0.206398
28 2 0.316781 0.316781 0.316781
10 1 0.415968 0.197454 0.197454
37 2 0.566863 0.300549 0.300549
19 1 0.719528 0.208074 0.208074
46 2 0.82227 0.326609 0.326609
4 1 0.197454 0.415968 0.197454
31 2 0.30055 0.566863 0.30055
13 1 0.416567 0.416567 0.165967
40 2 0.557347 0.557347 0.280632
22 1 0.704342 0.410929 0.173898
49 2 0.809133 0.567689 0.302466
7 1 0.208074 0.719528 0.208074
34 2 0.326609 0.82227 0.326609
16 1 0.410929 0.704342 0.173898
43 2 0.567689 0.809133 0.302466
25 1 0.696296 0.696296 0.177268
52 2 0.807691 0.807691 0.323659
2 1 0.197454 0.197454 0.415968
29 2 0.300549 0.30055 0.566863
11 1 0.416567 0.165967 0.416567
38 2 0.557347 0.280632 0.557347
20 1 0.704342 0.173898 0.410929
47 2 0.809133 0.302466 0.567689
5 1 0.165967 0.416567 0.416567
32 2 0.280632 0.557347 0.557347
14 1 0.431566 0.431566 0.431566
41 2 0.545302 0.545302 0.545302
23 1 0.697899 0.450729 0.450729
50 2 0.865069 0.560234 0.560234
8 1 0.173898 0.704342 0.410929
35 2 0.302466 0.809133 0.567689
17 1 0.450729 0.697899 0.450729
44 2 0.560234 0.865069 0.560234
26 1 0.681363 0.681363 0.456075
53 2 0.811685 0.811685 0.566262
3 1 0.208074 0.208074 0.719528
30 2 0.326609 0.326609 0.82227
12 1 0.410929 0.173898 0.704342
39 2 0.567689 0.302466 0.809133
21 1 0.696296 0.177268 0.696296
48 2 0.807691 0.323659 0.807691
6 1 0.173898 0.410929 0.704342
33 2 0.302466 0.567689 0.809133
15 1 0.450729 0.450729 0.697899
42 2 0.560234 0.560234 0.865069
24 1 0.681363 0.456075 0.681363
51 2 0.811685 0.566262 0.811685
9 1 0.177268 0.696296 0.696296
36 2 0.323659 0.807691 0.807691
18 1 0.456075 0.681363 0.681363
45 2 0.566262 0.811685 0.811685
27 1 0.674781 0.674781 0.674781
54 2 0.801598 0.801598 0.801598
ITEM: TIMESTEP
500
ITEM: NUMBER OF ATOMS
54
ITEM: BOX BOUNDS pp pp pp
-2.3125000000000000e+00 9.9875000000000007e+00
-2.3125000000000000e+00 9.9875000000000007e+00
-2.3125000000000000e+00 9.9875000000000007e+00
ITEM: ATOMS id type xs ys zs
1 1 0.206398 0.206398 0.206398
28 2 0.316781 0.316781 0.316781
10 1 0.415968 0.197454 0.197454
37 2 0.566863 0.300549 0.300549
19 1 0.719528 0.208074 0.208074
46 2 0.82227 0.326609 0.326609
4 1 0.197454 0.415968 0.197454
31 2 0.30055 0.566863 0.30055
13 1 0.416567 0.416567 0.165967
40 2 0.557347 0.557347 0.280632
22 1 0.704342 0.410929 0.173898
49 2 0.809133 0.567689 0.302466
7 1 0.208074 0.719528 0.208074
34 2 0.326609 0.82227 0.326609
16 1 0.410929 0.704342 0.173898
43 2 0.567689 0.809133 0.302466
25 1 0.696296 0.696296 0.177268
52 2 0.807691 0.807691 0.323659
2 1 0.197454 0.197454 0.415968
29 2 0.300549 0.300549 0.566863
11 1 0.416567 0.165967 0.416567
38 2 0.557347 0.280632 0.557347
20 1 0.704342 0.173898 0.410929
47 2 0.809133 0.302466 0.567689
5 1 0.165967 0.416567 0.416567
32 2 0.280632 0.557347 0.557347
14 1 0.431566 0.431566 0.431566
41 2 0.545302 0.545302 0.545302
23 1 0.697899 0.450729 0.450729
50 2 0.865069 0.560234 0.560234
8 1 0.173898 0.704342 0.410929
35 2 0.302466 0.809133 0.567689
17 1 0.450729 0.697899 0.450729
44 2 0.560234 0.865069 0.560234
26 1 0.681363 0.681363 0.456075
53 2 0.811685 0.811685 0.566262
3 1 0.208074 0.208074 0.719528
30 2 0.326609 0.326609 0.82227
12 1 0.410929 0.173898 0.704342
39 2 0.567689 0.302466 0.809133
21 1 0.696296 0.177268 0.696296
48 2 0.807691 0.323659 0.807691
6 1 0.173898 0.410929 0.704342
33 2 0.302466 0.567689 0.809133
15 1 0.450729 0.450729 0.697899
42 2 0.560234 0.560233 0.865069
24 1 0.681363 0.456075 0.681363
51 2 0.811685 0.566262 0.811685
9 1 0.177268 0.696296 0.696296
36 2 0.323659 0.807691 0.807691
18 1 0.456075 0.681363 0.681363
45 2 0.566262 0.811685 0.811685
27 1 0.674781 0.674781 0.674781
54 2 0.801598 0.801598 0.801598
ITEM: TIMESTEP
600
ITEM: NUMBER OF ATOMS
54
ITEM: BOX BOUNDS pp pp pp
-2.3125000000000000e+00 9.9875000000000007e+00
-2.3125000000000000e+00 9.9875000000000007e+00
-2.3125000000000000e+00 9.9875000000000007e+00
ITEM: ATOMS id type xs ys zs
1 1 0.206398 0.206398 0.206398
28 2 0.316781 0.316781 0.316781
10 1 0.415968 0.197454 0.197454
37 2 0.566863 0.300549 0.300549
19 1 0.719528 0.208074 0.208074
46 2 0.82227 0.326609 0.326609
4 1 0.197454 0.415968 0.197454
31 2 0.30055 0.566863 0.30055
13 1 0.416567 0.416567 0.165967
40 2 0.557347 0.557347 0.280632
22 1 0.704342 0.410929 0.173898
49 2 0.809133 0.567689 0.302466
7 1 0.208074 0.719528 0.208074
34 2 0.326609 0.82227 0.326609
16 1 0.410929 0.704342 0.173898
43 2 0.567689 0.809133 0.302466
25 1 0.696296 0.696296 0.177268
52 2 0.807691 0.807691 0.323659
2 1 0.197454 0.197454 0.415968
29 2 0.300549 0.300549 0.566863
11 1 0.416567 0.165967 0.416567
38 2 0.557347 0.280632 0.557347
20 1 0.704342 0.173898 0.410929
47 2 0.809133 0.302466 0.567689
5 1 0.165967 0.416567 0.416567
32 2 0.280632 0.557347 0.557347
14 1 0.431566 0.431566 0.431566
41 2 0.545302 0.545302 0.545302
23 1 0.697899 0.450729 0.450729
50 2 0.865069 0.560234 0.560234
8 1 0.173898 0.704342 0.410929
35 2 0.302466 0.809133 0.567689
17 1 0.450729 0.697899 0.450729
44 2 0.560233 0.865069 0.560234
26 1 0.681363 0.681363 0.456075
53 2 0.811685 0.811685 0.566262
3 1 0.208074 0.208074 0.719528
30 2 0.326609 0.326609 0.82227
12 1 0.410928 0.173898 0.704342
39 2 0.567689 0.302466 0.809133
21 1 0.696296 0.177268 0.696296
48 2 0.807691 0.323659 0.807691
6 1 0.173898 0.410929 0.704342
33 2 0.302467 0.567689 0.809133
15 1 0.450729 0.450729 0.697899
42 2 0.560234 0.560233 0.865069
24 1 0.681363 0.456075 0.681363
51 2 0.811685 0.566262 0.811685
9 1 0.177268 0.696296 0.696296
36 2 0.323659 0.807692 0.807691
18 1 0.456075 0.681363 0.681363
45 2 0.566262 0.811685 0.811685
27 1 0.674781 0.674781 0.674781
54 2 0.801598 0.801598 0.801598
ITEM: TIMESTEP
700
ITEM: NUMBER OF ATOMS
54
ITEM: BOX BOUNDS pp pp pp
-2.3125000000000000e+00 9.9875000000000007e+00
-2.3125000000000000e+00 9.9875000000000007e+00
-2.3125000000000000e+00 9.9875000000000007e+00
ITEM: ATOMS id type xs ys zs
1 1 0.206398 0.206398 0.206398
28 2 0.316781 0.316781 0.316781
10 1 0.415968 0.197454 0.197454
37 2 0.566863 0.300549 0.300549
19 1 0.719528 0.208074 0.208074
46 2 0.82227 0.326609 0.326609
4 1 0.197454 0.415968 0.197454
31 2 0.30055 0.566863 0.30055
13 1 0.416567 0.416567 0.165967
40 2 0.557347 0.557347 0.280632
22 1 0.704342 0.410928 0.173898
49 2 0.809133 0.567689 0.302466
7 1 0.208075 0.719528 0.208074
34 2 0.326609 0.82227 0.326609
16 1 0.410929 0.704342 0.173898
43 2 0.567689 0.809133 0.302467
25 1 0.696296 0.696296 0.177268
52 2 0.807692 0.807691 0.323659
2 1 0.197454 0.197454 0.415968
29 2 0.300549 0.300549 0.566863
11 1 0.416567 0.165967 0.416567
38 2 0.557347 0.280632 0.557347
20 1 0.704342 0.173898 0.410929
47 2 0.809133 0.302466 0.567689
5 1 0.165967 0.416567 0.416568
32 2 0.280632 0.557347 0.557347
14 1 0.431566 0.431566 0.431566
41 2 0.545302 0.545302 0.545302
23 1 0.697899 0.450729 0.450729
50 2 0.865069 0.560234 0.560234
8 1 0.173898 0.704342 0.410928
35 2 0.302466 0.809133 0.567688
17 1 0.450729 0.697899 0.450729
44 2 0.560233 0.865069 0.560234
26 1 0.681363 0.681363 0.456075
53 2 0.811685 0.811685 0.566262
3 1 0.208074 0.208075 0.719528
30 2 0.326609 0.32661 0.82227
12 1 0.410928 0.173898 0.704342
39 2 0.567688 0.302466 0.809133
21 1 0.696296 0.177268 0.696296
48 2 0.807691 0.323659 0.807692
6 1 0.173898 0.410929 0.704342
33 2 0.302467 0.567689 0.809133
15 1 0.450729 0.450729 0.697899
42 2 0.560234 0.560233 0.865069
24 1 0.681364 0.456075 0.681363
51 2 0.811685 0.566262 0.811685
9 1 0.177268 0.696296 0.696296
36 2 0.323659 0.807692 0.80769
18 1 0.456075 0.681363 0.681364
45 2 0.566262 0.811685 0.811685
27 1 0.674781 0.674781 0.674781
54 2 0.801598 0.801598 0.801598
ITEM: TIMESTEP
800
ITEM: NUMBER OF ATOMS
54
ITEM: BOX BOUNDS pp pp pp
-2.3125000000000000e+00 9.9875000000000007e+00
-2.3125000000000000e+00 9.9875000000000007e+00
-2.3125000000000000e+00 9.9875000000000007e+00
ITEM: ATOMS id type xs ys zs
1 1 0.206398 0.206398 0.206398
28 2 0.316781 0.316781 0.316781
10 1 0.415968 0.197454 0.197454
37 2 0.566863 0.300549 0.300549
19 1 0.719528 0.208074 0.208075
46 2 0.82227 0.326609 0.32661
4 1 0.197454 0.415968 0.197454
31 2 0.30055 0.566863 0.30055
13 1 0.416567 0.416568 0.165967
40 2 0.557347 0.557347 0.280632
22 1 0.704342 0.410928 0.173898
49 2 0.809133 0.567688 0.302466
7 1 0.208075 0.719528 0.208074
34 2 0.32661 0.82227 0.326608
16 1 0.41093 0.704342 0.173899
43 2 0.567689 0.809133 0.302467
25 1 0.696296 0.696296 0.177268
52 2 0.807692 0.80769 0.323659
2 1 0.197454 0.197454 0.415968
29 2 0.300549 0.300549 0.566863
11 1 0.416568 0.165967 0.416567
38 2 0.557347 0.280632 0.557347
20 1 0.704342 0.173898 0.410929
47 2 0.809133 0.302467 0.56769
5 1 0.165967 0.416567 0.416568
32 2 0.280632 0.557347 0.557347
14 1 0.431566 0.431566 0.431566
41 2 0.545302 0.545302 0.545302
23 1 0.697899 0.450729 0.450729
50 2 0.865069 0.560234 0.560233
8 1 0.173898 0.704342 0.410928
35 2 0.302466 0.809133 0.567688
17 1 0.450729 0.697899 0.450729
44 2 0.560233 0.865069 0.560234
26 1 0.681363 0.681363 0.456075
53 2 0.811685 0.811685 0.566262
3 1 0.208074 0.208075 0.719528
30 2 0.326609 0.32661 0.82227
12 1 0.410928 0.173898 0.704343
39 2 0.567688 0.302466 0.809133
21 1 0.696296 0.177268 0.696296
48 2 0.80769 0.323659 0.807692
6 1 0.173898 0.41093 0.704342
33 2 0.302467 0.56769 0.809133
15 1 0.450729 0.450729 0.697899
42 2 0.560234 0.560233 0.865069
24 1 0.681364 0.456075 0.681363
51 2 0.811685 0.566262 0.811685
9 1 0.177268 0.696297 0.696296
36 2 0.323659 0.807693 0.807689
18 1 0.456075 0.681363 0.681364
45 2 0.566262 0.811685 0.811685
27 1 0.674781 0.674781 0.674782
54 2 0.801598 0.801598 0.801598
ITEM: TIMESTEP
900
ITEM: NUMBER OF ATOMS
54
ITEM: BOX BOUNDS pp pp pp
-2.3125000000000000e+00 9.9875000000000007e+00
-2.3125000000000000e+00 9.9875000000000007e+00
-2.3125000000000000e+00 9.9875000000000007e+00
ITEM: ATOMS id type xs ys zs
1 1 0.206398 0.206398 0.206398
28 2 0.316781 0.31678 0.316781
10 1 0.415968 0.197454 0.197455
37 2 0.566863 0.300549 0.300549
19 1 0.719528 0.208073 0.208075
46 2 0.82227 0.326608 0.32661
4 1 0.197455 0.415968 0.197454
31 2 0.30055 0.566863 0.30055
13 1 0.416567 0.416568 0.165967
40 2 0.557347 0.557347 0.280633
22 1 0.704343 0.410927 0.173897
49 2 0.809133 0.567687 0.302466
7 1 0.208075 0.719527 0.208073
34 2 0.32661 0.82227 0.326608
16 1 0.410931 0.704341 0.173899
43 2 0.567691 0.809133 0.302467
25 1 0.696297 0.696295 0.177268
52 2 0.807694 0.807689 0.323659
2 1 0.197454 0.197455 0.415968
29 2 0.300549 0.300549 0.566863
11 1 0.416568 0.165967 0.416567
38 2 0.557347 0.280632 0.557347
20 1 0.704342 0.173899 0.41093
47 2 0.809133 0.302467 0.567691
5 1 0.165967 0.416567 0.416568
32 2 0.280632 0.557347 0.557347
14 1 0.431566 0.431566 0.431566
41 2 0.545302 0.545302 0.545302
23 1 0.697899 0.450729 0.450729
50 2 0.865069 0.560234 0.560233
8 1 0.173898 0.704343 0.410927
35 2 0.302465 0.809133 0.567686
17 1 0.450729 0.697899 0.450729
44 2 0.560232 0.865069 0.560235
26 1 0.681363 0.681364 0.456075
53 2 0.811684 0.811685 0.566262
3 1 0.208073 0.208076 0.719528
30 2 0.326608 0.326611 0.82227
12 1 0.410926 0.173897 0.704343
39 2 0.567687 0.302465 0.809133
21 1 0.696295 0.177268 0.696297
48 2 0.807688 0.323659 0.807694
6 1 0.173899 0.410931 0.704341
33 2 0.302468 0.567691 0.809133
15 1 0.450729 0.450729 0.697899
42 2 0.560235 0.560232 0.865069
24 1 0.681364 0.456075 0.681363
51 2 0.811686 0.566262 0.811685
9 1 0.177268 0.696297 0.696295
36 2 0.323659 0.807696 0.807687
18 1 0.456075 0.681363 0.681364
45 2 0.566262 0.811684 0.811685
27 1 0.674782 0.674781 0.674782
54 2 0.801598 0.801598 0.801598
ITEM: TIMESTEP
1000
ITEM: NUMBER OF ATOMS
54
ITEM: BOX BOUNDS pp pp pp
-2.3125000000000000e+00 9.9875000000000007e+00
-2.3125000000000000e+00 9.9875000000000007e+00
-2.3125000000000000e+00 9.9875000000000007e+00
ITEM: ATOMS id type xs ys zs
1 1 0.206398 0.206398 0.206398
28 2 0.316781 0.31678 0.316781
10 1 0.415968 0.197453 0.197455
37 2 0.566863 0.300549 0.30055
19 1 0.719528 0.208072 0.208077
46 2 0.82227 0.326607 0.326612
4 1 0.197455 0.415967 0.197453
31 2 0.30055 0.566863 0.30055
13 1 0.416566 0.416569 0.165967
40 2 0.557347 0.557346 0.280633
22 1 0.704344 0.410925 0.173897
49 2 0.809133 0.567685 0.302465
7 1 0.208077 0.719527 0.208072
34 2 0.326612 0.82227 0.326606
16 1 0.410934 0.70434 0.1739
43 2 0.567693 0.809133 0.302469
25 1 0.696298 0.696294 0.177268
52 2 0.807698 0.807684 0.323659
2 1 0.197453 0.197455 0.415968
29 2 0.30055 0.300549 0.566863
11 1 0.416569 0.165967 0.416566
38 2 0.557347 0.280632 0.557347
20 1 0.704341 0.173899 0.410933
47 2 0.809133 0.302468 0.567694
5 1 0.165967 0.416566 0.416569
32 2 0.280632 0.557347 0.557347
14 1 0.431566 0.431565 0.431566
41 2 0.545302 0.545302 0.545302
23 1 0.697899 0.450729 0.45073
50 2 0.865069 0.560236 0.560232
8 1 0.173897 0.704344 0.410924
35 2 0.302464 0.809133 0.567683
17 1 0.450729 0.697899 0.450729
44 2 0.560231 0.865069 0.560236
26 1 0.681363 0.681364 0.456075
53 2 0.811684 0.811686 0.566262
3 1 0.208071 0.208077 0.719528
30 2 0.326606 0.326613 0.82227
12 1 0.410924 0.173896 0.704344
39 2 0.567684 0.302464 0.809133
21 1 0.696294 0.177268 0.696298
48 2 0.807683 0.323659 0.807699
6 1 0.1739 0.410933 0.70434
33 2 0.302469 0.567695 0.809133
15 1 0.450729 0.450729 0.697899
42 2 0.560236 0.560231 0.865069
24 1 0.681364 0.456075 0.681363
51 2 0.811686 0.566262 0.811684
9 1 0.177268 0.696298 0.696294
36 2 0.323659 0.807701 0.807681
18 1 0.456075 0.681363 0.681364
45 2 0.566262 0.811684 0.811686
27 1 0.674782 0.674781 0.674782
54 2 0.801598 0.801598 0.801598
ITEM: TIMESTEP
1100
ITEM: NUMBER OF ATOMS
54
ITEM: BOX BOUNDS pp pp pp
-2.3125000000000000e+00 9.9875000000000007e+00
-2.3125000000000000e+00 9.9875000000000007e+00
-2.3125000000000000e+00 9.9875000000000007e+00
ITEM: ATOMS id type xs ys zs
1 1 0.206399 0.206398 0.206399
28 2 0.316781 0.31678 0.316781
10 1 0.415968 0.197451 0.197457
37 2 0.566863 0.300549 0.30055
19 1 0.719528 0.208068 0.20808
46 2 0.82227 0.326603 0.326616
4 1 0.197457 0.415967 0.197451
31 2 0.30055 0.566862 0.30055
13 1 0.416564 0.41657 0.165967
40 2 0.557347 0.557346 0.280633
22 1 0.704346 0.410918 0.173894
49 2 0.809133 0.567678 0.302461
7 1 0.208081 0.719527 0.208068
34 2 0.326616 0.82227 0.326601
16 1 0.41094 0.704337 0.173903
43 2 0.5677 0.809133 0.302472
25 1 0.696301 0.696291 0.177268
52 2 0.807709 0.807674 0.323659
2 1 0.197451 0.197457 0.415968
29 2 0.30055 0.300549 0.566863
11 1 0.416571 0.165967 0.416565
38 2 0.557347 0.280632 0.557347
20 1 0.704338 0.173901 0.410939
47 2 0.809133 0.302471 0.5677
5 1 0.165967 0.416564 0.41657
32 2 0.280633 0.557347 0.557347
14 1 0.431566 0.431565 0.431566
41 2 0.545302 0.545302 0.545302
23 1 0.697899 0.450728 0.45073
50 2 0.865069 0.560239 0.560228
8 1 0.173895 0.704346 0.410918
35 2 0.30246 0.809133 0.567676
17 1 0.45073 0.697899 0.450728
44 2 0.560227 0.865069 0.56024
26 1 0.681362 0.681364 0.456075
53 2 0.811682 0.811687 0.566262
3 1 0.208068 0.208081 0.719529
30 2 0.326602 0.326617 0.82227
12 1 0.410917 0.173894 0.704347
39 2 0.567677 0.30246 0.809133
21 1 0.696291 0.177268 0.696301
48 2 0.807672 0.323659 0.80771
6 1 0.173902 0.41094 0.704338
33 2 0.302473 0.567702 0.809133
15 1 0.450729 0.45073 0.697899
42 2 0.56024 0.560227 0.865069
24 1 0.681365 0.456075 0.681362
51 2 0.811688 0.566262 0.811683
9 1 0.177268 0.696302 0.69629
36 2 0.323659 0.807713 0.807669
18 1 0.456075 0.681362 0.681365
45 2 0.566262 0.811682 0.811687
27 1 0.674782 0.674781 0.674782
54 2 0.801598 0.801597 0.801598
ITEM: TIMESTEP
1200
ITEM: NUMBER OF ATOMS
54
ITEM: BOX BOUNDS pp pp pp
-2.3125000000000000e+00 9.9875000000000007e+00
-2.3125000000000000e+00 9.9875000000000007e+00
-2.3125000000000000e+00 9.9875000000000007e+00
ITEM: ATOMS id type xs ys zs
1 1 0.206399 0.206398 0.206399
28 2 0.316781 0.31678 0.316781
10 1 0.415968 0.197448 0.19746
37 2 0.566863 0.300549 0.300549
19 1 0.719529 0.20806 0.208089
46 2 0.82227 0.326593 0.326626
4 1 0.197461 0.415967 0.197448
31 2 0.30055 0.566862 0.30055
13 1 0.41656 0.416575 0.165967
40 2 0.557348 0.557346 0.280633
22 1 0.704352 0.410904 0.173889
49 2 0.809133 0.567662 0.302454
7 1 0.20809 0.719526 0.208059
34 2 0.326625 0.82227 0.326591
16 1 0.410955 0.704331 0.173909
43 2 0.567716 0.809133 0.30248
25 1 0.696308 0.696284 0.177268
52 2 0.807735 0.807647 0.323659
2 1 0.197447 0.197461 0.415968
29 2 0.30055 0.300549 0.566864
11 1 0.416575 0.165967 0.41656
38 2 0.557347 0.280632 0.557348
20 1 0.704333 0.173907 0.410953
47 2 0.809133 0.302479 0.567717
5 1 0.165967 0.41656 0.416575
32 2 0.280633 0.557347 0.557347
14 1 0.431566 0.431565 0.431566
41 2 0.545302 0.545302 0.545302
23 1 0.697899 0.450727 0.450731
50 2 0.865069 0.560247 0.56022
8 1 0.17389 0.704352 0.410903
35 2 0.302452 0.809133 0.567658
17 1 0.45073 0.697899 0.450727
44 2 0.560219 0.865069 0.560248
26 1 0.681361 0.681366 0.456075
53 2 0.811678 0.811691 0.566262
3 1 0.208059 0.20809 0.719529
30 2 0.326592 0.326627 0.82227
12 1 0.410902 0.173888 0.704354
39 2 0.567661 0.302452 0.809133
21 1 0.696284 0.177268 0.696309
48 2 0.807645 0.323659 0.807737
6 1 0.173907 0.410955 0.704332
33 2 0.302481 0.567719 0.809133
15 1 0.450728 0.450731 0.697899
42 2 0.560249 0.560219 0.865069
24 1 0.681366 0.456075 0.681361
51 2 0.811692 0.566262 0.811679
9 1 0.177268 0.696309 0.696283
36 2 0.323659 0.807742 0.807641
18 1 0.456075 0.68136 0.681366
45 2 0.566262 0.811678 0.811691
27 1 0.674782 0.674781 0.674782
54 2 0.801598 0.801597 0.801598
ITEM: TIMESTEP
1300
ITEM: NUMBER OF ATOMS
54
ITEM: BOX BOUNDS pp pp pp
-2.3125000000000000e+00 9.9875000000000007e+00
-2.3125000000000000e+00 9.9875000000000007e+00
-2.3125000000000000e+00 9.9875000000000007e+00
ITEM: ATOMS id type xs ys zs
1 1 0.206399 0.206398 0.206399
28 2 0.316781 0.31678 0.316781
10 1 0.415968 0.197438 0.19747
37 2 0.566864 0.300549 0.300549
19 1 0.719529 0.208039 0.20811
46 2 0.822271 0.32657 0.32665
4 1 0.197471 0.415967 0.197438
31 2 0.30055 0.566862 0.300551
13 1 0.416549 0.416585 0.165967
40 2 0.557348 0.557345 0.280633
22 1 0.704367 0.410867 0.173876
49 2 0.809133 0.567623 0.302435
7 1 0.208111 0.719525 0.208037
34 2 0.326649 0.82227 0.326567
16 1 0.410992 0.704315 0.173922
43 2 0.567755 0.809133 0.302499
25 1 0.696326 0.696266 0.177268
52 2 0.8078 0.807583 0.323659
2 1 0.197437 0.197471 0.415968
29 2 0.30055 0.300548 0.566864
11 1 0.416586 0.165967 0.41655
38 2 0.557346 0.280631 0.557348
20 1 0.704319 0.173919 0.410989
47 2 0.809133 0.302498 0.567757
5 1 0.165967 0.416549 0.416585
32 2 0.280633 0.557347 0.557347
14 1 0.431566 0.431565 0.431567
41 2 0.545302 0.545301 0.545302
23 1 0.697899 0.450725 0.450734
50 2 0.865069 0.560267 0.560201
8 1 0.173877 0.704366 0.410867
35 2 0.302433 0.809132 0.567617
17 1 0.450733 0.697899 0.450725
44 2 0.560199 0.865069 0.560268
26 1 0.681357 0.68137 0.456075
53 2 0.811668 0.8117 0.566262
3 1 0.208037 0.208112 0.71953
30 2 0.326569 0.326652 0.82227
12 1 0.410864 0.173874 0.704369
39 2 0.567621 0.302433 0.809133
21 1 0.696266 0.177267 0.696327
48 2 0.807579 0.323659 0.807803
6 1 0.17392 0.410991 0.704318
33 2 0.3025 0.56776 0.809133
15 1 0.450726 0.450733 0.6979
42 2 0.560269 0.560198 0.865069
24 1 0.68137 0.456075 0.681357
51 2 0.811701 0.566262 0.81167
9 1 0.177268 0.696327 0.696264
36 2 0.323659 0.80781 0.807572
18 1 0.456075 0.681356 0.68137
45 2 0.566262 0.811669 0.8117
27 1 0.674782 0.674781 0.674782
54 2 0.801598 0.801597 0.801598
ITEM: TIMESTEP
1400
ITEM: NUMBER OF ATOMS
54
ITEM: BOX BOUNDS pp pp pp
-2.3125000000000000e+00 9.9875000000000007e+00
-2.3125000000000000e+00 9.9875000000000007e+00
-2.3125000000000000e+00 9.9875000000000007e+00
ITEM: ATOMS id type xs ys zs
1 1 0.206399 0.206398 0.206399
28 2 0.316781 0.31678 0.316781
10 1 0.415968 0.197415 0.197493
37 2 0.566864 0.30055 0.300549
19 1 0.71953 0.207987 0.208162
46 2 0.822271 0.326512 0.326708
4 1 0.197494 0.415967 0.197415
31 2 0.300549 0.566861 0.300552
13 1 0.416523 0.416611 0.165967
40 2 0.55735 0.557343 0.280633
22 1 0.704402 0.410779 0.173844
49 2 0.809133 0.567525 0.302389
7 1 0.208164 0.719524 0.207984
34 2 0.326707 0.82227 0.326507
16 1 0.411082 0.704279 0.173955
43 2 0.567853 0.809132 0.302546
25 1 0.696369 0.696222 0.177268
52 2 0.807959 0.807423 0.323659
2 1 0.197414 0.197494 0.415968
29 2 0.300551 0.300547 0.566864
11 1 0.416612 0.165968 0.416525
38 2 0.557345 0.280631 0.55735
20 1 0.704284 0.173951 0.411077
47 2 0.809134 0.302544 0.567855
5 1 0.165967 0.416523 0.416611
32 2 0.280633 0.557347 0.557346
14 1 0.431567 0.431564 0.431567
41 2 0.545302 0.545301 0.545302
23 1 0.6979 0.450719 0.45074
50 2 0.865069 0.560315 0.560152
8 1 0.173846 0.704401 0.410778
35 2 0.302385 0.809132 0.567517
17 1 0.450738 0.697898 0.450719
44 2 0.560149 0.865069 0.560318
26 1 0.681347 0.681379 0.456076
53 2 0.811646 0.811722 0.566262
3 1 0.207984 0.208165 0.719531
30 2 0.32651 0.326711 0.82227
12 1 0.410774 0.173841 0.704405
39 2 0.567522 0.302385 0.809133
21 1 0.696222 0.177267 0.696371
48 2 0.807417 0.323659 0.807965
6 1 0.173952 0.411081 0.704282
33 2 0.302548 0.56786 0.809134
15 1 0.45072 0.450739 0.6979
42 2 0.560319 0.560148 0.865069
24 1 0.68138 0.456075 0.681348
51 2 0.811724 0.566262 0.811648
9 1 0.177268 0.696371 0.69622
36 2 0.323659 0.807974 0.807407
18 1 0.456076 0.681346 0.68138
45 2 0.566262 0.811646 0.811723
27 1 0.674782 0.67478 0.674782
54 2 0.801598 0.801597 0.801598
ITEM: TIMESTEP
1500
ITEM: NUMBER OF ATOMS
54
ITEM: BOX BOUNDS pp pp pp
-2.3125000000000000e+00 9.9875000000000007e+00
-2.3125000000000000e+00 9.9875000000000007e+00
-2.3125000000000000e+00 9.9875000000000007e+00
ITEM: ATOMS id type xs ys zs
1 1 0.206399 0.206397 0.206399
28 2 0.316781 0.316779 0.316781
10 1 0.415962 0.19733 0.19756
37 2 0.566864 0.300551 0.300547
19 1 0.71953 0.207858 0.208291
46 2 0.822278 0.326366 0.326854
4 1 0.197562 0.41596 0.197329
31 2 0.300548 0.566861 0.300554
13 1 0.41646 0.416675 0.165967
40 2 0.557353 0.55734 0.280634
22 1 0.704489 0.410559 0.173765
49 2 0.809133 0.567284 0.302274
7 1 0.208294 0.719523 0.207854
34 2 0.326852 0.82228 0.326359
16 1 0.411303 0.704189 0.174035
43 2 0.568094 0.809133 0.302661
25 1 0.696477 0.696115 0.177269