ITEM: TIMESTEP
0
ITEM: NUMBER OF ATOMS
3000
ITEM: BOX BOUNDS pp pp pp
1.9589900000000000e+00 2.1058990000000001e+01
1.9589900000000000e+00 2.1058990000000001e+01
7.0214999999999996e+00 6.9021500000000003e+01
ITEM: ATOMS id type xs ys zs
156 2 0.14665 0.14665 0.03525
160 2 0.14665 0.14665 0.03525
2376 1 0.0220424 0.0220424 0.01175
2380 1 0.0220424 0.0220424 0.01175
2396 1 0.0220424 0.018901 0.01175
2400 1 0.0220424 0.018901 0.01175
2476 1 0.018901 0.0220424 0.01175
2480 1 0.018901 0.0220424 0.01175
2496 1 0.018901 0.018901 0.01175
2500 1 0.018901 0.018901 0.01175
2631 1 0.0220424 0.14665 0.01175
2635 1 0.0220424 0.14665 0.01175
2731 1 0.018901 0.14665 0.01175
2735 1 0.018901 0.14665 0.01175
2901 1 0.14665 0.0220424 0.01175
2905 1 0.14665 0.0220424 0.01175
2921 1 0.14665 0.018901 0.01175
2925 1 0.14665 0.018901 0.01175
181 2 0.395864 0.14665 0.03525
185 2 0.395864 0.14665 0.03525
776 2 0.229721 0.0635782 0.0507
780 2 0.229721 0.0635782 0.0507
796 2 0.229721 0.0604368 0.0507
800 2 0.229721 0.0604368 0.0507
2401 1 0.271257 0.0220424 0.01175
2405 1 0.271257 0.0220424 0.01175
2421 1 0.271257 0.018901 0.01175
2425 1 0.271257 0.018901 0.01175
2656 1 0.271257 0.14665 0.01175
2660 1 0.271257 0.14665 0.01175
2926 1 0.395864 0.0220424 0.01175
2930 1 0.395864 0.0220424 0.01175
2946 1 0.395864 0.018901 0.01175
2950 1 0.395864 0.018901 0.01175
801 2 0.478936 0.0635782 0.0507
805 2 0.478936 0.0635782 0.0507
821 2 0.478936 0.0604368 0.0507
825 2 0.478936 0.0604368 0.0507
2426 1 0.520472 0.0220424 0.01175
2430 1 0.520472 0.0220424 0.01175
2446 1 0.520472 0.018901 0.01175
2450 1 0.520472 0.018901 0.01175
2681 1 0.520472 0.14665 0.01175
2685 1 0.520472 0.14665 0.01175
206 2 0.645079 0.14665 0.03525
210 2 0.645079 0.14665 0.03525
826 2 0.728151 0.0635782 0.0507
830 2 0.728151 0.0635782 0.0507
846 2 0.728151 0.0604368 0.0507
850 2 0.728151 0.0604368 0.0507
2451 1 0.769686 0.0220424 0.01175
2455 1 0.769686 0.0220424 0.01175
2471 1 0.769686 0.018901 0.01175
2475 1 0.769686 0.018901 0.01175
2706 1 0.769686 0.14665 0.01175
2710 1 0.769686 0.14665 0.01175
2951 1 0.645079 0.0220424 0.01175
2955 1 0.645079 0.0220424 0.01175
2971 1 0.645079 0.018901 0.01175
2975 1 0.645079 0.018901 0.01175
131 2 0.897435 0.14665 0.03525
135 2 0.897435 0.14665 0.03525
231 2 0.894294 0.14665 0.03525
235 2 0.894294 0.14665 0.03525
751 2 0.980507 0.0635782 0.0507
755 2 0.980507 0.0635782 0.0507
771 2 0.980507 0.0604368 0.0507
775 2 0.980507 0.0604368 0.0507
851 2 0.977365 0.0635782 0.0507
855 2 0.977365 0.0635782 0.0507
871 2 0.977365 0.0604368 0.0507
875 2 0.977365 0.0604368 0.0507
2876 1 0.897435 0.0220424 0.01175
2880 1 0.897435 0.0220424 0.01175
2896 1 0.897435 0.018901 0.01175
2900 1 0.897435 0.018901 0.01175
2976 1 0.894294 0.0220424 0.01175
2980 1 0.894294 0.0220424 0.01175
2996 1 0.894294 0.018901 0.01175
3000 1 0.894294 0.018901 0.01175
161 2 0.14665 0.395864 0.03525
165 2 0.14665 0.395864 0.03525
1131 1 0.0635782 0.229721 0.043035
1135 1 0.0635782 0.229721 0.043035
1231 1 0.0604368 0.229721 0.043035
1235 1 0.0604368 0.229721 0.043035
2381 1 0.0220424 0.271257 0.01175
2385 1 0.0220424 0.271257 0.01175
2481 1 0.018901 0.271257 0.01175
2485 1 0.018901 0.271257 0.01175
2636 1 0.0220424 0.395864 0.01175
2640 1 0.0220424 0.395864 0.01175
2736 1 0.018901 0.395864 0.01175
2740 1 0.018901 0.395864 0.01175
2906 1 0.14665 0.271257 0.01175
2910 1 0.14665 0.271257 0.01175
186 2 0.395864 0.395864 0.03525
190 2 0.395864 0.395864 0.03525
781 2 0.229721 0.312793 0.0507
785 2 0.229721 0.312793 0.0507
1156 1 0.312793 0.229721 0.043035
1160 1 0.312793 0.229721 0.043035
2406 1 0.271257 0.271257 0.01175
2410 1 0.271257 0.271257 0.01175
2661 1 0.271257 0.395864 0.01175
2665 1 0.271257 0.395864 0.01175
2931 1 0.395864 0.271257 0.01175
2935 1 0.395864 0.271257 0.01175
806 2 0.478936 0.312793 0.0507
810 2 0.478936 0.312793 0.0507
1181 1 0.562007 0.229721 0.043035
1185 1 0.562007 0.229721 0.043035
2431 1 0.520472 0.271257 0.01175
2435 1 0.520472 0.271257 0.01175
2686 1 0.520472 0.395864 0.01175
2690 1 0.520472 0.395864 0.01175
211 2 0.645079 0.395864 0.03525
215 2 0.645079 0.395864 0.03525
831 2 0.728151 0.312793 0.0507
835 2 0.728151 0.312793 0.0507
2456 1 0.769686 0.271257 0.01175
2460 1 0.769686 0.271257 0.01175
2711 1 0.769686 0.395864 0.01175
2715 1 0.769686 0.395864 0.01175
2956 1 0.645079 0.271257 0.01175
2960 1 0.645079 0.271257 0.01175
136 2 0.897435 0.395864 0.03525
140 2 0.897435 0.395864 0.03525
236 2 0.894294 0.395864 0.03525
240 2 0.894294 0.395864 0.03525
756 2 0.980507 0.312793 0.0507
760 2 0.980507 0.312793 0.0507
856 2 0.977365 0.312793 0.0507
860 2 0.977365 0.312793 0.0507
1206 1 0.811222 0.229721 0.043035
1210 1 0.811222 0.229721 0.043035
2881 1 0.897435 0.271257 0.01175
2885 1 0.897435 0.271257 0.01175
2981 1 0.894294 0.271257 0.01175
2985 1 0.894294 0.271257 0.01175
1136 1 0.0635782 0.478936 0.043035
1140 1 0.0635782 0.478936 0.043035
1236 1 0.0604368 0.478936 0.043035
1240 1 0.0604368 0.478936 0.043035
2386 1 0.0220424 0.520472 0.01175
2390 1 0.0220424 0.520472 0.01175
2486 1 0.018901 0.520472 0.01175
2490 1 0.018901 0.520472 0.01175
2911 1 0.14665 0.520472 0.01175
2915 1 0.14665 0.520472 0.01175
786 2 0.229721 0.562007 0.0507
790 2 0.229721 0.562007 0.0507
1161 1 0.312793 0.478936 0.043035
1165 1 0.312793 0.478936 0.043035
2411 1 0.271257 0.520472 0.01175
2415 1 0.271257 0.520472 0.01175
2936 1 0.395864 0.520472 0.01175
2940 1 0.395864 0.520472 0.01175
811 2 0.478936 0.562007 0.0507
815 2 0.478936 0.562007 0.0507
1186 1 0.562007 0.478936 0.043035
1190 1 0.562007 0.478936 0.043035
2436 1 0.520472 0.520472 0.01175
2440 1 0.520472 0.520472 0.01175
836 2 0.728151 0.562007 0.0507
840 2 0.728151 0.562007 0.0507
2461 1 0.769686 0.520472 0.01175
2465 1 0.769686 0.520472 0.01175
2961 1 0.645079 0.520472 0.01175
2965 1 0.645079 0.520472 0.01175
761 2 0.980507 0.562007 0.0507
765 2 0.980507 0.562007 0.0507
861 2 0.977365 0.562007 0.0507
865 2 0.977365 0.562007 0.0507
1211 1 0.811222 0.478936 0.043035
1215 1 0.811222 0.478936 0.043035
2886 1 0.897435 0.520472 0.01175
2890 1 0.897435 0.520472 0.01175
2986 1 0.894294 0.520472 0.01175
2990 1 0.894294 0.520472 0.01175
166 2 0.14665 0.645079 0.03525
170 2 0.14665 0.645079 0.03525
1141 1 0.0635782 0.728151 0.043035
1145 1 0.0635782 0.728151 0.043035
1241 1 0.0604368 0.728151 0.043035
1245 1 0.0604368 0.728151 0.043035
2391 1 0.0220424 0.769686 0.01175
2395 1 0.0220424 0.769686 0.01175
2491 1 0.018901 0.769686 0.01175
2495 1 0.018901 0.769686 0.01175
2641 1 0.0220424 0.645079 0.01175
2645 1 0.0220424 0.645079 0.01175
2741 1 0.018901 0.645079 0.01175
2745 1 0.018901 0.645079 0.01175
2916 1 0.14665 0.769686 0.01175
2920 1 0.14665 0.769686 0.01175
191 2 0.395864 0.645079 0.03525
195 2 0.395864 0.645079 0.03525
1166 1 0.312793 0.728151 0.043035
1170 1 0.312793 0.728151 0.043035
2416 1 0.271257 0.769686 0.01175
2420 1 0.271257 0.769686 0.01175
2666 1 0.271257 0.645079 0.01175
2670 1 0.271257 0.645079 0.01175
2941 1 0.395864 0.769686 0.01175
2945 1 0.395864 0.769686 0.01175
1191 1 0.562007 0.728151 0.043035
1195 1 0.562007 0.728151 0.043035
2441 1 0.520472 0.769686 0.01175
2445 1 0.520472 0.769686 0.01175
2691 1 0.520472 0.645079 0.01175
2695 1 0.520472 0.645079 0.01175
216 2 0.645079 0.645079 0.03525
220 2 0.645079 0.645079 0.03525
2466 1 0.769686 0.769686 0.01175
2470 1 0.769686 0.769686 0.01175
2716 1 0.769686 0.645079 0.01175
2720 1 0.769686 0.645079 0.01175
2966 1 0.645079 0.769686 0.01175
2970 1 0.645079 0.769686 0.01175
141 2 0.897435 0.645079 0.03525
145 2 0.897435 0.645079 0.03525
241 2 0.894294 0.645079 0.03525
245 2 0.894294 0.645079 0.03525
1216 1 0.811222 0.728151 0.043035
1220 1 0.811222 0.728151 0.043035
2891 1 0.897435 0.769686 0.01175
2895 1 0.897435 0.769686 0.01175
2991 1 0.894294 0.769686 0.01175
2995 1 0.894294 0.769686 0.01175
151 2 0.14665 0.897435 0.03525
155 2 0.14665 0.897435 0.03525
171 2 0.14665 0.894294 0.03525
175 2 0.14665 0.894294 0.03525
1126 1 0.0635782 0.980507 0.043035
1130 1 0.0635782 0.980507 0.043035
1146 1 0.0635782 0.977365 0.043035
1150 1 0.0635782 0.977365 0.043035
1226 1 0.0604368 0.980507 0.043035
1230 1 0.0604368 0.980507 0.043035
1246 1 0.0604368 0.977365 0.043035
1250 1 0.0604368 0.977365 0.043035
2626 1 0.0220424 0.897435 0.01175
2630 1 0.0220424 0.897435 0.01175
2646 1 0.0220424 0.894294 0.01175
2650 1 0.0220424 0.894294 0.01175
2726 1 0.018901 0.897435 0.01175
2730 1 0.018901 0.897435 0.01175
2746 1 0.018901 0.894294 0.01175
2750 1 0.018901 0.894294 0.01175
176 2 0.395864 0.897435 0.03525
180 2 0.395864 0.897435 0.03525
196 2 0.395864 0.894294 0.03525
200 2 0.395864 0.894294 0.03525
791 2 0.229721 0.811222 0.0507
795 2 0.229721 0.811222 0.0507
1151 1 0.312793 0.980507 0.043035
1155 1 0.312793 0.980507 0.043035
1171 1 0.312793 0.977365 0.043035
1175 1 0.312793 0.977365 0.043035
2651 1 0.271257 0.897435 0.01175
2655 1 0.271257 0.897435 0.01175
2671 1 0.271257 0.894294 0.01175
2675 1 0.271257 0.894294 0.01175
816 2 0.478936 0.811222 0.0507
820 2 0.478936 0.811222 0.0507
1176 1 0.562007 0.980507 0.043035
1180 1 0.562007 0.980507 0.043035
1196 1 0.562007 0.977365 0.043035
1200 1 0.562007 0.977365 0.043035
2676 1 0.520472 0.897435 0.01175
2680 1 0.520472 0.897435 0.01175
2696 1 0.520472 0.894294 0.01175
2700 1 0.520472 0.894294 0.01175
201 2 0.645079 0.897435 0.03525
205 2 0.645079 0.897435 0.03525
221 2 0.645079 0.894294 0.03525
225 2 0.645079 0.894294 0.03525
841 2 0.728151 0.811222 0.0507
845 2 0.728151 0.811222 0.0507
2701 1 0.769686 0.897435 0.01175
2705 1 0.769686 0.897435 0.01175
2721 1 0.769686 0.894294 0.01175
2725 1 0.769686 0.894294 0.01175
126 2 0.897435 0.897435 0.03525
130 2 0.897435 0.897435 0.03525
146 2 0.897435 0.894294 0.03525
150 2 0.897435 0.894294 0.03525
226 2 0.894294 0.897435 0.03525
230 2 0.894294 0.897435 0.03525
246 2 0.894294 0.894294 0.03525
250 2 0.894294 0.894294 0.03525
766 2 0.980507 0.811222 0.0507
770 2 0.980507 0.811222 0.0507
866 2 0.977365 0.811222 0.0507
870 2 0.977365 0.811222 0.0507
1201 1 0.811222 0.980507 0.043035
1205 1 0.811222 0.980507 0.043035
1221 1 0.811222 0.977365 0.043035
1225 1 0.811222 0.977365 0.043035
406 2 0.14665 0.14665 0.11325
410 2 0.14665 0.14665 0.11325
1631 1 0.105706 0.187593 0.07425
1635 1 0.105706 0.187593 0.07425
1731 1 0.102565 0.187593 0.07425
1735 1 0.102565 0.187593 0.07425
1876 1 0.105706 0.0647628 0.07425
1880 1 0.105706 0.0647628 0.07425
1896 1 0.105706 0.0616214 0.07425
1900 1 0.105706 0.0616214 0.07425
1976 1 0.102565 0.0647628 0.07425
1980 1 0.102565 0.0647628 0.07425
1996 1 0.102565 0.0616214 0.07425
2000 1 0.102565 0.0616214 0.07425
431 2 0.395864 0.14665 0.11325
435 2 0.395864 0.14665 0.11325
526 2 0.229721 0.0635782 0.0978
530 2 0.229721 0.0635782 0.0978
546 2 0.229721 0.0604368 0.0978
550 2 0.229721 0.0604368 0.0978
1656 1 0.354921 0.187593 0.07425
1660 1 0.354921 0.187593 0.07425
1901 1 0.354921 0.0647628 0.07425
1905 1 0.354921 0.0647628 0.07425
1921 1 0.354921 0.0616214 0.07425
1925 1 0.354921 0.0616214 0.07425
2156 1 0.228537 0.187593 0.07425
2160 1 0.228537 0.187593 0.07425
551 2 0.478936 0.0635782 0.0978
555 2 0.478936 0.0635782 0.0978
571 2 0.478936 0.0604368 0.0978
575 2 0.478936 0.0604368 0.0978
2181 1 0.477751 0.187593 0.07425
2185 1 0.477751 0.187593 0.07425
456 2 0.645079 0.14665 0.11325
460 2 0.645079 0.14665 0.11325
576 2 0.728151 0.0635782 0.0978
580 2 0.728151 0.0635782 0.0978
596 2 0.728151 0.0604368 0.0978
600 2 0.728151 0.0604368 0.0978
1681 1 0.604136 0.187593 0.07425
1685 1 0.604136 0.187593 0.07425
1926 1 0.604136 0.0647628 0.07425
1930 1 0.604136 0.0647628 0.07425
1946 1 0.604136 0.0616214 0.07425
1950 1 0.604136 0.0616214 0.07425
2206 1 0.726966 0.187593 0.07425
2210 1 0.726966 0.187593 0.07425
381 2 0.897435 0.14665 0.11325
385 2 0.897435 0.14665 0.11325
481 2 0.894294 0.14665 0.11325
485 2 0.894294 0.14665 0.11325
501 2 0.980507 0.0635782 0.0978
505 2 0.980507 0.0635782 0.0978
521 2 0.980507 0.0604368 0.0978
525 2 0.980507 0.0604368 0.0978
601 2 0.977365 0.0635782 0.0978
605 2 0.977365 0.0635782 0.0978
621 2 0.977365 0.0604368 0.0978
625 2 0.977365 0.0604368 0.0978
1706 1 0.85335 0.187593 0.07425
1710 1 0.85335 0.187593 0.07425
1951 1 0.85335 0.0647628 0.07425
1955 1 0.85335 0.0647628 0.07425
1971 1 0.85335 0.0616214 0.07425
1975 1 0.85335 0.0616214 0.07425
2131 1 0.979322 0.187593 0.07425
2135 1 0.979322 0.187593 0.07425
2231 1 0.976181 0.187593 0.07425
2235 1 0.976181 0.187593 0.07425
411 2 0.14665 0.395864 0.11325
415 2 0.14665 0.395864 0.11325
1381 1 0.0635782 0.229721 0.105465
1385 1 0.0635782 0.229721 0.105465
1481 1 0.0604368 0.229721 0.105465
1485 1 0.0604368 0.229721 0.105465
1881 1 0.105706 0.313977 0.07425
1885 1 0.105706 0.313977 0.07425
1981 1 0.102565 0.313977 0.07425
1985 1 0.102565 0.313977 0.07425
436 2 0.395864 0.395864 0.11325
440 2 0.395864 0.395864 0.11325
531 2 0.229721 0.312793 0.0978
535 2 0.229721 0.312793 0.0978
1406 1 0.312793 0.229721 0.105465
1410 1 0.312793 0.229721 0.105465
1906 1 0.354921 0.313977 0.07425
1910 1 0.354921 0.313977 0.07425
556 2 0.478936 0.312793 0.0978
560 2 0.478936 0.312793 0.0978
1431 1 0.562007 0.229721 0.105465
1435 1 0.562007 0.229721 0.105465
461 2 0.645079 0.395864 0.11325
465 2 0.645079 0.395864 0.11325
581 2 0.728151 0.312793 0.0978
585 2 0.728151 0.312793 0.0978
1931 1 0.604136 0.313977 0.07425
1935 1 0.604136 0.313977 0.07425
386 2 0.897435 0.395864 0.11325
390 2 0.897435 0.395864 0.11325
486 2 0.894294 0.395864 0.11325
490 2 0.894294 0.395864 0.11325
506 2 0.980507 0.312793 0.0978
510 2 0.980507 0.312793 0.0978
606 2 0.977365 0.312793 0.0978
610 2 0.977365 0.312793 0.0978
1456 1 0.811222 0.229721 0.105465
1460 1 0.811222 0.229721 0.105465
1956 1 0.85335 0.313977 0.07425
1960 1 0.85335 0.313977 0.07425
1386 1 0.0635782 0.478936 0.105465
1390 1 0.0635782 0.478936 0.105465
1486 1 0.0604368 0.478936 0.105465
1490 1 0.0604368 0.478936 0.105465
1636 1 0.105706 0.436808 0.07425
1640 1 0.105706 0.436808 0.07425
1736 1 0.102565 0.436808 0.07425
1740 1 0.102565 0.436808 0.07425
1886 1 0.105706 0.563192 0.07425
1890 1 0.105706 0.563192 0.07425
1986 1 0.102565 0.563192 0.07425
1990 1 0.102565 0.563192 0.07425
536 2 0.229721 0.562007 0.0978
540 2 0.229721 0.562007 0.0978
1411 1 0.312793 0.478936 0.105465
1415 1 0.312793 0.478936 0.105465
1661 1 0.354921 0.436808 0.07425
1665 1 0.354921 0.436808 0.07425
1911 1 0.354921 0.563192 0.07425
1915 1 0.354921 0.563192 0.07425
2161 1 0.228537 0.436808 0.07425
2165 1 0.228537 0.436808 0.07425
561 2 0.478936 0.562007 0.0978
565 2 0.478936 0.562007 0.0978
1436 1 0.562007 0.478936 0.105465
1440 1 0.562007 0.478936 0.105465
2186 1 0.477751 0.436808 0.07425
2190 1 0.477751 0.436808 0.07425
586 2 0.728151 0.562007 0.0978
590 2 0.728151 0.562007 0.0978
1686 1 0.604136 0.436808 0.07425
1690 1 0.604136 0.436808 0.07425
1936 1 0.604136 0.563192 0.07425
1940 1 0.604136 0.563192 0.07425
2211 1 0.726966 0.436808 0.07425
2215 1 0.726966 0.436808 0.07425
511 2 0.980507 0.562007 0.0978
515 2 0.980507 0.562007 0.0978
611 2 0.977365 0.562007 0.0978
615 2 0.977365 0.562007 0.0978
1461 1 0.811222 0.478936 0.105465
1465 1 0.811222 0.478936 0.105465
1711 1 0.85335 0.436808 0.07425
1715 1 0.85335 0.436808 0.07425
1961 1 0.85335 0.563192 0.07425
1965 1 0.85335 0.563192 0.07425
2136 1 0.979322 0.436808 0.07425
2140 1 0.979322 0.436808 0.07425
2236 1 0.976181 0.436808 0.07425
2240 1 0.976181 0.436808 0.07425
416 2 0.14665 0.645079 0.11325
420 2 0.14665 0.645079 0.11325
1391 1 0.0635782 0.728151 0.105465
1395 1 0.0635782 0.728151 0.105465
1491 1 0.0604368 0.728151 0.105465
1495 1 0.0604368 0.728151 0.105465
1641 1 0.105706 0.686023 0.07425
1645 1 0.105706 0.686023 0.07425
1741 1 0.102565 0.686023 0.07425
1745 1 0.102565 0.686023 0.07425
441 2 0.395864 0.645079 0.11325
445 2 0.395864 0.645079 0.11325
1416 1 0.312793 0.728151 0.105465
1420 1 0.312793 0.728151 0.105465
1666 1 0.354921 0.686023 0.07425
1670 1 0.354921 0.686023 0.07425
2166 1 0.228537 0.686023 0.07425
2170 1 0.228537 0.686023 0.07425
1441 1 0.562007 0.728151 0.105465
1445 1 0.562007 0.728151 0.105465
2191 1 0.477751 0.686023 0.07425
2195 1 0.477751 0.686023 0.07425
466 2 0.645079 0.645079 0.11325
470 2 0.645079 0.645079 0.11325
1691 1 0.604136 0.686023 0.07425
1695 1 0.604136 0.686023 0.07425
2216 1 0.726966 0.686023 0.07425
2220 1 0.726966 0.686023 0.07425
391 2 0.897435 0.645079 0.11325
395 2 0.897435 0.645079 0.11325
491 2 0.894294 0.645079 0.11325
495 2 0.894294 0.645079 0.11325
1466 1 0.811222 0.728151 0.105465
1470 1 0.811222 0.728151 0.105465
1716 1 0.85335 0.686023 0.07425
1720 1 0.85335 0.686023 0.07425
2141 1 0.979322 0.686023 0.07425
2145 1 0.979322 0.686023 0.07425
2241 1 0.976181 0.686023 0.07425
2245 1 0.976181 0.686023 0.07425
401 2 0.14665 0.897435 0.11325
405 2 0.14665 0.897435 0.11325
421 2 0.14665 0.894294 0.11325
425 2 0.14665 0.894294 0.11325
1376 1 0.0635782 0.980507 0.105465
1380 1 0.0635782 0.980507 0.105465
1396 1 0.0635782 0.977365 0.105465
1400 1 0.0635782 0.977365 0.105465
1476 1 0.0604368 0.980507 0.105465
1480 1 0.0604368 0.980507 0.105465
1496 1 0.0604368 0.977365 0.105465
1500 1 0.0604368 0.977365 0.105465
1626 1 0.105706 0.938379 0.07425
1630 1 0.105706 0.938379 0.07425
1646 1 0.105706 0.935237 0.07425
1650 1 0.105706 0.935237 0.07425
1726 1 0.102565 0.938379 0.07425
1730 1 0.102565 0.938379 0.07425
1746 1 0.102565 0.935237 0.07425
1750 1 0.102565 0.935237 0.07425
1891 1 0.105706 0.812407 0.07425
1895 1 0.105706 0.812407 0.07425
1991 1 0.102565 0.812407 0.07425
1995 1 0.102565 0.812407 0.07425
426 2 0.395864 0.897435 0.11325
430 2 0.395864 0.897435 0.11325
446 2 0.395864 0.894294 0.11325
450 2 0.395864 0.894294 0.11325
541 2 0.229721 0.811222 0.0978
545 2 0.229721 0.811222 0.0978
1401 1 0.312793 0.980507 0.105465
1405 1 0.312793 0.980507 0.105465
1421 1 0.312793 0.977365 0.105465
1425 1 0.312793 0.977365 0.105465
1651 1 0.354921 0.938379 0.07425
1655 1 0.354921 0.938379 0.07425
1671 1 0.354921 0.935237 0.07425
1675 1 0.354921 0.935237 0.07425
1916 1 0.354921 0.812407 0.07425
1920 1 0.354921 0.812407 0.07425
2151 1 0.228537 0.938379 0.07425
2155 1 0.228537 0.938379 0.07425
2171 1 0.228537 0.935237 0.07425
2175 1 0.228537 0.935237 0.07425
566 2 0.478936 0.811222 0.0978
570 2 0.478936 0.811222 0.0978
1426 1 0.562007 0.980507 0.105465
1430 1 0.562007 0.980507 0.105465
1446 1 0.562007 0.977365 0.105465
1450 1 0.562007 0.977365 0.105465
2176 1 0.477751 0.938379 0.07425
2180 1 0.477751 0.938379 0.07425
2196 1 0.477751 0.935237 0.07425
2200 1 0.477751 0.935237 0.07425
451 2 0.645079 0.897435 0.11325
455 2 0.645079 0.897435 0.11325
471 2 0.645079 0.894294 0.11325
475 2 0.645079 0.894294 0.11325
591 2 0.728151 0.811222 0.0978
595 2 0.728151 0.811222 0.0978
1676 1 0.604136 0.938379 0.07425
1680 1 0.604136 0.938379 0.07425
1696 1 0.604136 0.935237 0.07425
1700 1 0.604136 0.935237 0.07425
1941 1 0.604136 0.812407 0.07425
1945 1 0.604136 0.812407 0.07425
2201 1 0.726966 0.938379 0.07425
2205 1 0.726966 0.938379 0.07425
2221 1 0.726966 0.935237 0.07425
2225 1 0.726966 0.935237 0.07425
376 2 0.897435 0.897435 0.11325
380 2 0.897435 0.897435 0.11325
396 2 0.897435 0.894294 0.11325
400 2 0.897435 0.894294 0.11325
476 2 0.894294 0.897435 0.11325
480 2 0.894294 0.897435 0.11325
496 2 0.894294 0.894294 0.11325
500 2 0.894294 0.894294 0.11325
516 2 0.980507 0.811222 0.0978
520 2 0.980507 0.811222 0.0978
616 2 0.977365 0.811222 0.0978
620 2 0.977365 0.811222 0.0978
1451 1 0.811222 0.980507 0.105465
1455 1 0.811222 0.980507 0.105465
1471 1 0.811222 0.977365 0.105465
1475 1 0.811222 0.977365 0.105465
1701 1 0.85335 0.938379 0.07425
1705 1 0.85335 0.938379 0.07425
1721 1 0.85335 0.935237 0.07425
1725 1 0.85335 0.935237 0.07425
1966 1 0.85335 0.812407 0.07425
1970 1 0.85335 0.812407 0.07425
2126 1 0.979322 0.938379 0.07425
2130 1 0.979322 0.938379 0.07425
2146 1 0.979322 0.935237 0.07425
2150 1 0.979322 0.935237 0.07425
2226 1 0.976181 0.938379 0.07425
2230 1 0.976181 0.938379 0.07425
2246 1 0.976181 0.935237 0.07425
2250 1 0.976181 0.935237 0.07425
32 2 0.14665 0.14665 0.16025
2257 1 0.0220424 0.14665 0.13675
2357 1 0.018901 0.14665 0.13675
2527 1 0.14665 0.0220424 0.13675
2547 1 0.14665 0.018901 0.13675
2752 1 0.0220424 0.0220424 0.13675
2772 1 0.0220424 0.018901 0.13675
2852 1 0.018901 0.0220424 0.13675
2872 1 0.018901 0.018901 0.13675
57 2 0.395864 0.14665 0.16025
1027 1 0.229721 0.0635782 0.168035
1047 1 0.229721 0.0604368 0.168035
2282 1 0.271257 0.14665 0.13675
2552 1 0.395864 0.0220424 0.13675
2572 1 0.395864 0.018901 0.13675
2777 1 0.271257 0.0220424 0.13675
2797 1 0.271257 0.018901 0.13675
1052 1 0.478936 0.0635782 0.168035
1072 1 0.478936 0.0604368 0.168035
2307 1 0.520472 0.14665 0.13675
2802 1 0.520472 0.0220424 0.13675
2822 1 0.520472 0.018901 0.13675
82 2 0.645079 0.14665 0.16025
1077 1 0.728151 0.0635782 0.168035
1097 1 0.728151 0.0604368 0.168035
2332 1 0.769686 0.14665 0.13675
2577 1 0.645079 0.0220424 0.13675
2597 1 0.645079 0.018901 0.13675
2827 1 0.769686 0.0220424 0.13675
2847 1 0.769686 0.018901 0.13675
7 2 0.897435 0.14665 0.16025
107 2 0.894294 0.14665 0.16025
1002 1 0.980507 0.0635782 0.168035
1022 1 0.980507 0.0604368 0.168035
1102 1 0.977365 0.0635782 0.168035
1122 1 0.977365 0.0604368 0.168035
2502 1 0.897435 0.0220424 0.13675
2522 1 0.897435 0.018901 0.13675
2602 1 0.894294 0.0220424 0.13675
2622 1 0.894294 0.018901 0.13675
37 2 0.14665 0.395864 0.16025
882 2 0.0635782 0.229721 0.1757
982 2 0.0604368 0.229721 0.1757
2262 1 0.0220424 0.395864 0.13675
2362 1 0.018901 0.395864 0.13675
2532 1 0.14665 0.271257 0.13675
2757 1 0.0220424 0.271257 0.13675
2857 1 0.018901 0.271257 0.13675
62 2 0.395864 0.395864 0.16025
907 2 0.312793 0.229721 0.1757
1032 1 0.229721 0.312793 0.168035
2287 1 0.271257 0.395864 0.13675
2557 1 0.395864 0.271257 0.13675
2782 1 0.271257 0.271257 0.13675
932 2 0.562007 0.229721 0.1757
1057 1 0.478936 0.312793 0.168035
2312 1 0.520472 0.395864 0.13675
2807 1 0.520472 0.271257 0.13675
87 2 0.645079 0.395864 0.16025
1082 1 0.728151 0.312793 0.168035
2337 1 0.769686 0.395864 0.13675
2582 1 0.645079 0.271257 0.13675
2832 1 0.769686 0.271257 0.13675
12 2 0.897435 0.395864 0.16025
112 2 0.894294 0.395864 0.16025
957 2 0.811222 0.229721 0.1757
1007 1 0.980507 0.312793 0.168035
1107 1 0.977365 0.312793 0.168035
2507 1 0.897435 0.271257 0.13675
2607 1 0.894294 0.271257 0.13675
887 2 0.0635782 0.478936 0.1757
987 2 0.0604368 0.478936 0.1757
2537 1 0.14665 0.520472 0.13675
2762 1 0.0220424 0.520472 0.13675
2862 1 0.018901 0.520472 0.13675
912 2 0.312793 0.478936 0.1757
1037 1 0.229721 0.562007 0.168035
2562 1 0.395864 0.520472 0.13675
2787 1 0.271257 0.520472 0.13675
937 2 0.562007 0.478936 0.1757
1062 1 0.478936 0.562007 0.168035
2812 1 0.520472 0.520472 0.13675
1087 1 0.728151 0.562007 0.168035
2587 1 0.645079 0.520472 0.13675
2837 1 0.769686 0.520472 0.13675
962 2 0.811222 0.478936 0.1757
1012 1 0.980507 0.562007 0.168035
1112 1 0.977365 0.562007 0.168035
2512 1 0.897435 0.520472 0.13675
2612 1 0.894294 0.520472 0.13675
42 2 0.14665 0.645079 0.16025
892 2 0.0635782 0.728151 0.1757
992 2 0.0604368 0.728151 0.1757
2267 1 0.0220424 0.645079 0.13675
2367 1 0.018901 0.645079 0.13675
2542 1 0.14665 0.769686 0.13675
2767 1 0.0220424 0.769686 0.13675
2867 1 0.018901 0.769686 0.13675
67 2 0.395864 0.645079 0.16025
917 2 0.312793 0.728151 0.1757
2292 1 0.271257 0.645079 0.13675
2567 1 0.395864 0.769686 0.13675
2792 1 0.271257 0.769686 0.13675
942 2 0.562007 0.728151 0.1757
2317 1 0.520472 0.645079 0.13675
2817 1 0.520472 0.769686 0.13675
92 2 0.645079 0.645079 0.16025
2342 1 0.769686 0.645079 0.13675
2592 1 0.645079 0.769686 0.13675
2842 1 0.769686 0.769686 0.13675
17 2 0.897435 0.645079 0.16025
117 2 0.894294 0.645079 0.16025
967 2 0.811222 0.728151 0.1757
2517 1 0.897435 0.769686 0.13675
2617 1 0.894294 0.769686 0.13675
27 2 0.14665 0.897435 0.16025
47 2 0.14665 0.894294 0.16025
877 2 0.0635782 0.980507 0.1757
897 2 0.0635782 0.977365 0.1757
977 2 0.0604368 0.980507 0.1757
997 2 0.0604368 0.977365 0.1757
2252 1 0.0220424 0.897435 0.13675
2272 1 0.0220424 0.894294 0.13675
2352 1 0.018901 0.897435 0.13675
2372 1 0.018901 0.894294 0.13675
52 2 0.395864 0.897435 0.16025
72 2 0.395864 0.894294 0.16025
902 2 0.312793 0.980507 0.1757
922 2 0.312793 0.977365 0.1757
1042 1 0.229721 0.811222 0.168035
2277 1 0.271257 0.897435 0.13675
2297 1 0.271257 0.894294 0.13675
927 2 0.562007 0.980507 0.1757
947 2 0.562007 0.977365 0.1757
1067 1 0.478936 0.811222 0.168035
2302 1 0.520472 0.897435 0.13675
2322 1 0.520472 0.894294 0.13675
77 2 0.645079 0.897435 0.16025
97 2 0.645079 0.894294 0.16025
1092 1 0.728151 0.811222 0.168035
2327 1 0.769686 0.897435 0.13675
2347 1 0.769686 0.894294 0.13675
2 2 0.897435 0.897435 0.16025
22 2 0.897435 0.894294 0.16025
102 2 0.894294 0.897435 0.16025
122 2 0.894294 0.894294 0.16025
952 2 0.811222 0.980507 0.1757
972 2 0.811222 0.977365 0.1757
1017 1 0.980507 0.811222 0.168035
1117 1 0.977365 0.811222 0.168035
1752 1 0.0647628 0.105706 0.19925
1772 1 0.0647628 0.102565 0.19925
1852 1 0.0616214 0.105706 0.19925
1872 1 0.0616214 0.102565 0.19925
2027 1 0.187593 0.105706 0.19925
2047 1 0.187593 0.102565 0.19925
1277 1 0.229721 0.0635782 0.230465
1297 1 0.229721 0.0604368 0.230465
1777 1 0.313977 0.105706 0.19925
1797 1 0.313977 0.102565 0.19925
1302 1 0.478936 0.0635782 0.230465
1322 1 0.478936 0.0604368 0.230465
1802 1 0.563192 0.105706 0.19925
1822 1 0.563192 0.102565 0.19925
2052 1 0.436808 0.105706 0.19925
2072 1 0.436808 0.102565 0.19925
1327 1 0.728151 0.0635782 0.230465
1347 1 0.728151 0.0604368 0.230465
2077 1 0.686023 0.105706 0.19925
2097 1 0.686023 0.102565 0.19925
1252 1 0.980507 0.0635782 0.230465
1272 1 0.980507 0.0604368 0.230465
1352 1 0.977365 0.0635782 0.230465
1372 1 0.977365 0.0604368 0.230465
1827 1 0.812407 0.105706 0.19925
1847 1 0.812407 0.102565 0.19925
2002 1 0.938379 0.105706 0.19925
2022 1 0.938379 0.102565 0.19925
2102 1 0.935237 0.105706 0.19925
2122 1 0.935237 0.102565 0.19925
632 2 0.0635782 0.229721 0.2228
732 2 0.0604368 0.229721 0.2228
1532 1 0.187593 0.228537 0.19925
1757 1 0.0647628 0.354921 0.19925
1857 1 0.0616214 0.354921 0.19925
2032 1 0.187593 0.354921 0.19925
657 2 0.312793 0.229721 0.2228
1282 1 0.229721 0.312793 0.230465
1782 1 0.313977 0.354921 0.19925
682 2 0.562007 0.229721 0.2228
1307 1 0.478936 0.312793 0.230465
1557 1 0.436808 0.228537 0.19925
1807 1 0.563192 0.354921 0.19925
2057 1 0.436808 0.354921 0.19925
1332 1 0.728151 0.312793 0.230465
1582 1 0.686023 0.228537 0.19925
2082 1 0.686023 0.354921 0.19925
707 2 0.811222 0.229721 0.2228
1257 1 0.980507 0.312793 0.230465
1357 1 0.977365 0.312793 0.230465
1507 1 0.938379 0.228537 0.19925
1607 1 0.935237 0.228537 0.19925
1832 1 0.812407 0.354921 0.19925
2007 1 0.938379 0.354921 0.19925
2107 1 0.935237 0.354921 0.19925
637 2 0.0635782 0.478936 0.2228
737 2 0.0604368 0.478936 0.2228
1537 1 0.187593 0.477751 0.19925
662 2 0.312793 0.478936 0.2228
1287 1 0.229721 0.562007 0.230465
687 2 0.562007 0.478936 0.2228
1312 1 0.478936 0.562007 0.230465
1562 1 0.436808 0.477751 0.19925
1337 1 0.728151 0.562007 0.230465
1587 1 0.686023 0.477751 0.19925
712 2 0.811222 0.478936 0.2228
1262 1 0.980507 0.562007 0.230465
1362 1 0.977365 0.562007 0.230465
1512 1 0.938379 0.477751 0.19925
1612 1 0.935237 0.477751 0.19925
642 2 0.0635782 0.728151 0.2228
742 2 0.0604368 0.728151 0.2228
1542 1 0.187593 0.726966 0.19925
1762 1 0.0647628 0.604136 0.19925
1862 1 0.0616214 0.604136 0.19925
2037 1 0.187593 0.604136 0.19925
667 2 0.312793 0.728151 0.2228
1787 1 0.313977 0.604136 0.19925
692 2 0.562007 0.728151 0.2228
1567 1 0.436808 0.726966 0.19925
1812 1 0.563192 0.604136 0.19925
2062 1 0.436808 0.604136 0.19925
1592 1 0.686023 0.726966 0.19925
2087 1 0.686023 0.604136 0.19925
717 2 0.811222 0.728151 0.2228
1517 1 0.938379 0.726966 0.19925
1617 1 0.935237 0.726966 0.19925
1837 1 0.812407 0.604136 0.19925
2012 1 0.938379 0.604136 0.19925
2112 1 0.935237 0.604136 0.19925
627 2 0.0635782 0.980507 0.2228
647 2 0.0635782 0.977365 0.2228
727 2 0.0604368 0.980507 0.2228
747 2 0.0604368 0.977365 0.2228
1527 1 0.187593 0.979322 0.19925
1547 1 0.187593 0.976181 0.19925
1767 1 0.0647628 0.85335 0.19925
1867 1 0.0616214 0.85335 0.19925
2042 1 0.187593 0.85335 0.19925
652 2 0.312793 0.980507 0.2228
672 2 0.312793 0.977365 0.2228
1292 1 0.229721 0.811222 0.230465
1792 1 0.313977 0.85335 0.19925
677 2 0.562007 0.980507 0.2228
697 2 0.562007 0.977365 0.2228
1317 1 0.478936 0.811222 0.230465
1552 1 0.436808 0.979322 0.19925
1572 1 0.436808 0.976181 0.19925
1817 1 0.563192 0.85335 0.19925
2067 1 0.436808 0.85335 0.19925
1342 1 0.728151 0.811222 0.230465
1577 1 0.686023 0.979322 0.19925
1597 1 0.686023 0.976181 0.19925
2092 1 0.686023 0.85335 0.19925
702 2 0.811222 0.980507 0.2228
722 2 0.811222 0.977365 0.2228
1267 1 0.980507 0.811222 0.230465
1367 1 0.977365 0.811222 0.230465
1502 1 0.938379 0.979322 0.19925
1522 1 0.938379 0.976181 0.19925
1602 1 0.935237 0.979322 0.19925
1622 1 0.935237 0.976181 0.19925
1842 1 0.812407 0.85335 0.19925
2017 1 0.938379 0.85335 0.19925
2117 1 0.935237 0.85335 0.19925
157 2 0.14665 0.14665 0.28525
282 2 0.14665 0.14665 0.23825
2377 1 0.0220424 0.0220424 0.26175
2397 1 0.0220424 0.018901 0.26175
2477 1 0.018901 0.0220424 0.26175
2497 1 0.018901 0.018901 0.26175
2632 1 0.0220424 0.14665 0.26175
2732 1 0.018901 0.14665 0.26175
2902 1 0.14665 0.0220424 0.26175
2922 1 0.14665 0.018901 0.26175
182 2 0.395864 0.14665 0.28525
307 2 0.395864 0.14665 0.23825
2402 1 0.271257 0.0220424 0.26175
2422 1 0.271257 0.018901 0.26175
2657 1 0.271257 0.14665 0.26175
2927 1 0.395864 0.0220424 0.26175
2947 1 0.395864 0.018901 0.26175
2427 1 0.520472 0.0220424 0.26175
2447 1 0.520472 0.018901 0.26175
2682 1 0.520472 0.14665 0.26175
207 2 0.645079 0.14665 0.28525
332 2 0.645079 0.14665 0.23825
2452 1 0.769686 0.0220424 0.26175
2472 1 0.769686 0.018901 0.26175
2707 1 0.769686 0.14665 0.26175
2952 1 0.645079 0.0220424 0.26175
2972 1 0.645079 0.018901 0.26175
132 2 0.897435 0.14665 0.28525
232 2 0.894294 0.14665 0.28525
257 2 0.897435 0.14665 0.23825
357 2 0.894294 0.14665 0.23825
2877 1 0.897435 0.0220424 0.26175
2897 1 0.897435 0.018901 0.26175