ITEM: TIMESTEP
0
ITEM: NUMBER OF ATOMS
32
ITEM: BOX BOUNDS pp pp pp
-4.5700000000000003e+00 1.0029999999999999e+01
-4.5700000000000003e+00 1.0029999999999999e+01
-4.5700000000000003e+00 1.0029999999999999e+01
ITEM: ATOMS id type xs ys zs
1 1 0.276267 0.458033 0.458033
2 1 0.316839 0.429901 0.674408
9 1 0.458033 0.458033 0.276267
10 1 0.428069 0.428069 0.556844
17 1 0.458033 0.276267 0.458033
18 1 0.429901 0.316839 0.674408
25 2 0.342414 0.342414 0.342414
26 2 0.3074 0.3074 0.542907
5 1 0.556844 0.428069 0.428069
6 1 0.543253 0.434452 0.703965
13 1 0.674408 0.429901 0.316839
14 1 0.703965 0.434452 0.543253
21 1 0.674408 0.316839 0.429901
22 1 0.689927 0.386859 0.689927
29 2 0.542907 0.3074 0.3074
30 2 0.578857 0.321201 0.578857
3 1 0.316839 0.674408 0.429901
4 1 0.386859 0.689927 0.689927
11 1 0.429901 0.674408 0.316839
12 1 0.434452 0.703965 0.543253
19 1 0.428069 0.556844 0.428069
20 1 0.434452 0.543253 0.703965
27 2 0.3074 0.542907 0.3074
28 2 0.321201 0.578857 0.578857
7 1 0.543253 0.703965 0.434452
8 1 0.54659 0.671356 0.671356
15 1 0.689927 0.689927 0.386859
16 1 0.671356 0.671356 0.54659
23 1 0.703965 0.543253 0.434452
24 1 0.671356 0.54659 0.671356
31 2 0.578857 0.578857 0.321201
32 2 0.553997 0.553997 0.553997
ITEM: TIMESTEP
100
ITEM: NUMBER OF ATOMS
32
ITEM: BOX BOUNDS pp pp pp
-4.5700000000000003e+00 1.0029999999999999e+01
-4.5700000000000003e+00 1.0029999999999999e+01
-4.5700000000000003e+00 1.0029999999999999e+01
ITEM: ATOMS id type xs ys zs
1 1 0.276267 0.458033 0.458033
2 1 0.316839 0.429901 0.674408
9 1 0.458033 0.458033 0.276267
10 1 0.428069 0.428069 0.556844
17 1 0.458033 0.276267 0.458033
18 1 0.429901 0.316839 0.674408
25 2 0.342414 0.342414 0.342414
26 2 0.3074 0.3074 0.542907
5 1 0.556844 0.428069 0.428069
6 1 0.543253 0.434452 0.703965
13 1 0.674408 0.429901 0.316839
14 1 0.703965 0.434452 0.543253
21 1 0.674408 0.316839 0.429901
22 1 0.689927 0.386859 0.689927
29 2 0.542907 0.3074 0.3074
30 2 0.578857 0.321201 0.578857
3 1 0.316839 0.674408 0.429901
4 1 0.386859 0.689927 0.689927
11 1 0.429901 0.674408 0.316839
12 1 0.434452 0.703965 0.543253
19 1 0.428069 0.556844 0.428069
20 1 0.434452 0.543253 0.703965
27 2 0.3074 0.542907 0.3074
28 2 0.321201 0.578857 0.578857
7 1 0.543253 0.703965 0.434452
8 1 0.54659 0.671356 0.671356
15 1 0.689927 0.689927 0.386859
16 1 0.671356 0.671356 0.54659
23 1 0.703965 0.543253 0.434452
24 1 0.671356 0.54659 0.671356
31 2 0.578857 0.578857 0.321201
32 2 0.553997 0.553997 0.553997
ITEM: TIMESTEP
200
ITEM: NUMBER OF ATOMS
32
ITEM: BOX BOUNDS pp pp pp
-4.5700000000000003e+00 1.0029999999999999e+01
-4.5700000000000003e+00 1.0029999999999999e+01
-4.5700000000000003e+00 1.0029999999999999e+01
ITEM: ATOMS id type xs ys zs
1 1 0.276267 0.458033 0.458033
2 1 0.316839 0.429901 0.674408
9 1 0.458033 0.458033 0.276267
10 1 0.428069 0.428069 0.556844
17 1 0.458033 0.276267 0.458033
18 1 0.429901 0.316839 0.674408
25 2 0.342414 0.342414 0.342414
26 2 0.3074 0.3074 0.542907
5 1 0.556844 0.428069 0.428069
6 1 0.543253 0.434452 0.703965
13 1 0.674408 0.429901 0.316839
14 1 0.703965 0.434452 0.543253
21 1 0.674408 0.316839 0.429901
22 1 0.689927 0.386859 0.689927
29 2 0.542907 0.3074 0.3074
30 2 0.578857 0.321201 0.578857
3 1 0.316839 0.674408 0.429901
4 1 0.386859 0.689927 0.689927
11 1 0.429901 0.674408 0.316839
12 1 0.434452 0.703965 0.543253
19 1 0.428069 0.556844 0.428069
20 1 0.434452 0.543253 0.703965
27 2 0.3074 0.542907 0.3074
28 2 0.321201 0.578857 0.578857
7 1 0.543253 0.703965 0.434452
8 1 0.54659 0.671356 0.671356
15 1 0.689927 0.689927 0.386859
16 1 0.671356 0.671356 0.54659
23 1 0.703965 0.543253 0.434452
24 1 0.671356 0.54659 0.671356
31 2 0.578857 0.578857 0.321201
32 2 0.553997 0.553997 0.553997
ITEM: TIMESTEP
300
ITEM: NUMBER OF ATOMS
32
ITEM: BOX BOUNDS pp pp pp
-4.5700000000000003e+00 1.0029999999999999e+01
-4.5700000000000003e+00 1.0029999999999999e+01
-4.5700000000000003e+00 1.0029999999999999e+01
ITEM: ATOMS id type xs ys zs
1 1 0.276267 0.458033 0.458033
2 1 0.316839 0.429901 0.674408
9 1 0.458033 0.458033 0.276267
10 1 0.428069 0.428069 0.556844
17 1 0.458033 0.276267 0.458033
18 1 0.429901 0.316839 0.674408
25 2 0.342414 0.342414 0.342414
26 2 0.3074 0.3074 0.542907
5 1 0.556844 0.428069 0.428069
6 1 0.543253 0.434452 0.703965
13 1 0.674408 0.429901 0.316839
14 1 0.703965 0.434452 0.543253
21 1 0.674408 0.316839 0.429901
22 1 0.689927 0.386859 0.689927
29 2 0.542907 0.3074 0.3074
30 2 0.578857 0.321201 0.578857
3 1 0.316839 0.674408 0.429901
4 1 0.386859 0.689927 0.689927
11 1 0.429901 0.674408 0.316839
12 1 0.434452 0.703965 0.543253
19 1 0.428069 0.556844 0.428069
20 1 0.434452 0.543253 0.703965
27 2 0.3074 0.542907 0.3074
28 2 0.321201 0.578857 0.578857
7 1 0.543253 0.703965 0.434452
8 1 0.54659 0.671356 0.671356
15 1 0.689927 0.689927 0.386859
16 1 0.671356 0.671356 0.54659
23 1 0.703965 0.543253 0.434452
24 1 0.671356 0.54659 0.671356
31 2 0.578857 0.578857 0.321201
32 2 0.553997 0.553997 0.553997
ITEM: TIMESTEP
400
ITEM: NUMBER OF ATOMS
32
ITEM: BOX BOUNDS pp pp pp
-4.5700000000000003e+00 1.0029999999999999e+01
-4.5700000000000003e+00 1.0029999999999999e+01
-4.5700000000000003e+00 1.0029999999999999e+01
ITEM: ATOMS id type xs ys zs
1 1 0.276267 0.458033 0.458033
2 1 0.316839 0.429901 0.674408
9 1 0.458033 0.458033 0.276267
10 1 0.428069 0.428069 0.556844
17 1 0.458033 0.276267 0.458033
18 1 0.429901 0.316839 0.674408
25 2 0.342414 0.342414 0.342414
26 2 0.3074 0.3074 0.542907
5 1 0.556844 0.428069 0.428069
6 1 0.543253 0.434452 0.703965
13 1 0.674408 0.429901 0.316839
14 1 0.703965 0.434452 0.543253
21 1 0.674408 0.316839 0.429901
22 1 0.689927 0.386859 0.689927
29 2 0.542907 0.3074 0.3074
30 2 0.578857 0.321201 0.578857
3 1 0.316839 0.674408 0.429901
4 1 0.386859 0.689927 0.689927
11 1 0.429901 0.674408 0.316839
12 1 0.434452 0.703965 0.543253
19 1 0.428069 0.556844 0.428069
20 1 0.434452 0.543253 0.703965
27 2 0.3074 0.542907 0.3074
28 2 0.321201 0.578857 0.578857
7 1 0.543253 0.703965 0.434452
8 1 0.54659 0.671356 0.671356
15 1 0.689927 0.689927 0.386859
16 1 0.671356 0.671356 0.54659
23 1 0.703965 0.543253 0.434452
24 1 0.671356 0.54659 0.671356
31 2 0.578857 0.578857 0.321201
32 2 0.553997 0.553997 0.553997
ITEM: TIMESTEP
500
ITEM: NUMBER OF ATOMS
32
ITEM: BOX BOUNDS pp pp pp
-4.5700000000000003e+00 1.0029999999999999e+01
-4.5700000000000003e+00 1.0029999999999999e+01
-4.5700000000000003e+00 1.0029999999999999e+01
ITEM: ATOMS id type xs ys zs
1 1 0.276267 0.458033 0.458033
2 1 0.316839 0.429901 0.674408
9 1 0.458033 0.458033 0.276267
10 1 0.428069 0.428069 0.556844
17 1 0.458033 0.276267 0.458033
18 1 0.429901 0.316839 0.674408
25 2 0.342414 0.342414 0.342414
26 2 0.3074 0.3074 0.542907
5 1 0.556844 0.428069 0.428069
6 1 0.543253 0.434452 0.703965
13 1 0.674408 0.429901 0.316839
14 1 0.703965 0.434452 0.543253
21 1 0.674408 0.316839 0.429901
22 1 0.689927 0.386859 0.689927
29 2 0.542907 0.3074 0.3074
30 2 0.578857 0.321201 0.578857
3 1 0.316839 0.674408 0.429901
4 1 0.386859 0.689927 0.689927
11 1 0.429901 0.674408 0.316839
12 1 0.434452 0.703965 0.543253
19 1 0.428069 0.556844 0.428069
20 1 0.434452 0.543253 0.703965
27 2 0.3074 0.542907 0.3074
28 2 0.321201 0.578857 0.578857
7 1 0.543253 0.703965 0.434452
8 1 0.54659 0.671356 0.671356
15 1 0.689927 0.689927 0.386859
16 1 0.671356 0.671356 0.54659
23 1 0.703965 0.543253 0.434452
24 1 0.671356 0.54659 0.671356
31 2 0.578857 0.578857 0.321201
32 2 0.553997 0.553997 0.553997
ITEM: TIMESTEP
600
ITEM: NUMBER OF ATOMS
32
ITEM: BOX BOUNDS pp pp pp
-4.5700000000000003e+00 1.0029999999999999e+01
-4.5700000000000003e+00 1.0029999999999999e+01
-4.5700000000000003e+00 1.0029999999999999e+01
ITEM: ATOMS id type xs ys zs
1 1 0.276267 0.458033 0.458033
2 1 0.316839 0.429901 0.674408
9 1 0.458033 0.458033 0.276267
10 1 0.428069 0.428069 0.556844
17 1 0.458033 0.276267 0.458033
18 1 0.429901 0.316839 0.674408
25 2 0.342414 0.342414 0.342414
26 2 0.3074 0.3074 0.542907
5 1 0.556844 0.428069 0.428069
6 1 0.543253 0.434452 0.703965
13 1 0.674408 0.429901 0.316839
14 1 0.703965 0.434452 0.543253
21 1 0.674408 0.316839 0.429901
22 1 0.689927 0.386859 0.689927
29 2 0.542907 0.3074 0.3074
30 2 0.578857 0.321201 0.578857
3 1 0.316839 0.674408 0.429901
4 1 0.386859 0.689927 0.689927
11 1 0.429901 0.674408 0.316839
12 1 0.434452 0.703965 0.543253
19 1 0.428069 0.556844 0.428069
20 1 0.434452 0.543253 0.703965
27 2 0.3074 0.542907 0.3074
28 2 0.321201 0.578857 0.578857
7 1 0.543253 0.703965 0.434452
8 1 0.54659 0.671356 0.671356
15 1 0.689927 0.689927 0.386859
16 1 0.671356 0.671356 0.54659
23 1 0.703965 0.543253 0.434452
24 1 0.671356 0.54659 0.671356
31 2 0.578857 0.578857 0.321201
32 2 0.553997 0.553997 0.553997
ITEM: TIMESTEP
700
ITEM: NUMBER OF ATOMS
32
ITEM: BOX BOUNDS pp pp pp
-4.5700000000000003e+00 1.0029999999999999e+01
-4.5700000000000003e+00 1.0029999999999999e+01
-4.5700000000000003e+00 1.0029999999999999e+01
ITEM: ATOMS id type xs ys zs
1 1 0.276267 0.458033 0.458033
2 1 0.316839 0.429901 0.674408
9 1 0.458033 0.458033 0.276267
10 1 0.428069 0.428069 0.556844
17 1 0.458033 0.276267 0.458033
18 1 0.429901 0.316839 0.674408
25 2 0.342414 0.342414 0.342414
26 2 0.3074 0.3074 0.542907
5 1 0.556844 0.428069 0.428069
6 1 0.543253 0.434452 0.703965
13 1 0.674408 0.429901 0.316839
14 1 0.703965 0.434452 0.543253
21 1 0.674408 0.316839 0.429901
22 1 0.689927 0.386859 0.689927
29 2 0.542907 0.3074 0.3074
30 2 0.578857 0.321201 0.578857
3 1 0.316839 0.674408 0.429901
4 1 0.386859 0.689927 0.689927
11 1 0.429901 0.674408 0.316839
12 1 0.434452 0.703965 0.543253
19 1 0.428069 0.556844 0.428069
20 1 0.434452 0.543253 0.703965
27 2 0.3074 0.542907 0.3074
28 2 0.321202 0.578857 0.578857
7 1 0.543253 0.703965 0.434452
8 1 0.54659 0.671356 0.671356
15 1 0.689927 0.689927 0.386859
16 1 0.671356 0.671356 0.54659
23 1 0.703965 0.543253 0.434452
24 1 0.671356 0.54659 0.671356
31 2 0.578857 0.578857 0.321201
32 2 0.553997 0.553997 0.553997
ITEM: TIMESTEP
800
ITEM: NUMBER OF ATOMS
32
ITEM: BOX BOUNDS pp pp pp
-4.5700000000000003e+00 1.0029999999999999e+01
-4.5700000000000003e+00 1.0029999999999999e+01
-4.5700000000000003e+00 1.0029999999999999e+01
ITEM: ATOMS id type xs ys zs
1 1 0.276267 0.458033 0.458033
2 1 0.316839 0.429901 0.674408
9 1 0.458033 0.458033 0.276267
10 1 0.428069 0.428069 0.556844
17 1 0.458033 0.276267 0.458033
18 1 0.429901 0.316839 0.674408
25 2 0.342414 0.342414 0.342414
26 2 0.3074 0.3074 0.542907
5 1 0.556844 0.428069 0.428069
6 1 0.543253 0.434452 0.703965
13 1 0.674408 0.429901 0.316839
14 1 0.703965 0.434452 0.543253
21 1 0.674408 0.316839 0.429901
22 1 0.689927 0.386859 0.689927
29 2 0.542907 0.3074 0.3074
30 2 0.578857 0.321201 0.578857
3 1 0.316839 0.674408 0.429901
4 1 0.386859 0.689927 0.689928
11 1 0.429901 0.674408 0.316839
12 1 0.434452 0.703965 0.543254
19 1 0.428069 0.556844 0.428069
20 1 0.434452 0.543253 0.703965
27 2 0.3074 0.542907 0.3074
28 2 0.321202 0.578856 0.578856
7 1 0.543253 0.703965 0.434452
8 1 0.54659 0.671357 0.671357
15 1 0.689927 0.689927 0.386859
16 1 0.671356 0.671356 0.54659
23 1 0.703965 0.543253 0.434452
24 1 0.671356 0.54659 0.671356
31 2 0.578857 0.578857 0.321201
32 2 0.553997 0.553997 0.553998
ITEM: TIMESTEP
900
ITEM: NUMBER OF ATOMS
32
ITEM: BOX BOUNDS pp pp pp
-4.5700000000000003e+00 1.0029999999999999e+01
-4.5700000000000003e+00 1.0029999999999999e+01
-4.5700000000000003e+00 1.0029999999999999e+01
ITEM: ATOMS id type xs ys zs
1 1 0.276267 0.458033 0.458033
2 1 0.316839 0.429901 0.674408
9 1 0.458033 0.458033 0.276267
10 1 0.42807 0.428068 0.556843
17 1 0.458033 0.276267 0.458033
18 1 0.429901 0.316838 0.674408
25 2 0.342414 0.342414 0.342414
26 2 0.307399 0.307399 0.542907
5 1 0.556845 0.42807 0.42807
6 1 0.543253 0.434452 0.703965
13 1 0.674408 0.429901 0.316838
14 1 0.703964 0.434452 0.543254
21 1 0.674408 0.316839 0.429901
22 1 0.689927 0.386859 0.689927
29 2 0.542907 0.3074 0.3074
30 2 0.578857 0.321201 0.578856
3 1 0.316839 0.674408 0.429901
4 1 0.386859 0.689928 0.689928
11 1 0.429901 0.674408 0.316838
12 1 0.434452 0.703967 0.543254
19 1 0.42807 0.556844 0.428068
20 1 0.434452 0.543254 0.703967
27 2 0.307399 0.542907 0.3074
28 2 0.321203 0.578856 0.578856
7 1 0.543253 0.703964 0.434452
8 1 0.54659 0.671357 0.671357
15 1 0.689927 0.689927 0.386859
16 1 0.671356 0.671356 0.54659
23 1 0.703964 0.543253 0.434452
24 1 0.671356 0.54659 0.671356
31 2 0.578857 0.578857 0.3212
32 2 0.553996 0.553998 0.553998
ITEM: TIMESTEP
1000
ITEM: NUMBER OF ATOMS
32
ITEM: BOX BOUNDS pp pp pp
-4.5700000000000003e+00 1.0029999999999999e+01
-4.5700000000000003e+00 1.0029999999999999e+01
-4.5700000000000003e+00 1.0029999999999999e+01
ITEM: ATOMS id type xs ys zs
1 1 0.276266 0.458033 0.458033
2 1 0.316842 0.429902 0.674407
9 1 0.458032 0.458033 0.276267
10 1 0.428071 0.428064 0.556841
17 1 0.458032 0.276267 0.458033
18 1 0.429901 0.316837 0.674407
25 2 0.342414 0.342414 0.342414
26 2 0.307398 0.307399 0.542907
5 1 0.556849 0.428073 0.428071
6 1 0.543252 0.434451 0.703964
13 1 0.674409 0.429901 0.316837
14 1 0.703962 0.434453 0.543254
21 1 0.674409 0.316838 0.429901
22 1 0.689926 0.38686 0.689928
29 2 0.542907 0.307401 0.307402
30 2 0.578858 0.321199 0.578856
3 1 0.316842 0.674407 0.429902
4 1 0.386859 0.689929 0.689929
11 1 0.429901 0.674407 0.316836
12 1 0.434452 0.703972 0.543255
19 1 0.428073 0.556842 0.428064
20 1 0.434452 0.543255 0.703972
27 2 0.307398 0.542907 0.3074
28 2 0.32121 0.578856 0.578855
7 1 0.543251 0.703961 0.434451
8 1 0.54659 0.671359 0.671359
15 1 0.689926 0.689927 0.38686
16 1 0.671354 0.671355 0.54659
23 1 0.703959 0.543253 0.434453
24 1 0.671355 0.54659 0.671356
31 2 0.578858 0.578857 0.321196
32 2 0.553991 0.553999 0.554002
ITEM: TIMESTEP
1100
ITEM: NUMBER OF ATOMS
32
ITEM: BOX BOUNDS pp pp pp
-4.5700000000000003e+00 1.0029999999999999e+01
-4.5700000000000003e+00 1.0029999999999999e+01
-4.5700000000000003e+00 1.0029999999999999e+01
ITEM: ATOMS id type xs ys zs
1 1 0.276265 0.458033 0.458034
2 1 0.316851 0.429903 0.674404
9 1 0.458031 0.458034 0.276268
10 1 0.428076 0.428046 0.55683
17 1 0.458031 0.276267 0.458034
18 1 0.429902 0.316833 0.674405
25 2 0.342413 0.342414 0.342415
26 2 0.307392 0.307396 0.542907
5 1 0.556865 0.428086 0.428077
6 1 0.543247 0.434449 0.703959
13 1 0.674413 0.429899 0.316831
14 1 0.703953 0.434455 0.543256
21 1 0.674412 0.316837 0.429899
22 1 0.689922 0.38686 0.689929
29 2 0.542906 0.307407 0.307408
30 2 0.57886 0.321191 0.578855
3 1 0.316852 0.674406 0.429903
4 1 0.386858 0.689933 0.689935
11 1 0.429901 0.674407 0.316828
12 1 0.434453 0.703993 0.543261
19 1 0.428085 0.556838 0.428046
20 1 0.434451 0.543259 0.703994
27 2 0.307395 0.542907 0.3074
28 2 0.321236 0.578853 0.578851
7 1 0.543245 0.703948 0.434449
8 1 0.54659 0.671368 0.671369
15 1 0.68992 0.689925 0.38686
16 1 0.671346 0.67135 0.546591
23 1 0.703943 0.543252 0.434455
24 1 0.671351 0.54659 0.671355
31 2 0.578862 0.578858 0.321178
32 2 0.55397 0.554006 0.554016
ITEM: TIMESTEP
1200
ITEM: NUMBER OF ATOMS
32
ITEM: BOX BOUNDS pp pp pp
-4.5700000000000003e+00 1.0029999999999999e+01
-4.5700000000000003e+00 1.0029999999999999e+01
-4.5700000000000003e+00 1.0029999999999999e+01
ITEM: ATOMS id type xs ys zs
1 1 0.27626 0.458034 0.458037
2 1 0.31689 0.42991 0.674393
9 1 0.458026 0.458037 0.276271
10 1 0.428096 0.427973 0.556785
17 1 0.458025 0.276269 0.458039
18 1 0.429904 0.316815 0.674396
25 2 0.342408 0.342416 0.342418
26 2 0.30737 0.307386 0.542908
5 1 0.556929 0.428137 0.428101
6 1 0.543227 0.434438 0.703942
13 1 0.674428 0.429892 0.316808
14 1 0.703915 0.434466 0.543264
21 1 0.674427 0.31683 0.429893
22 1 0.689905 0.386861 0.689932
29 2 0.542906 0.307429 0.307433
30 2 0.578873 0.321157 0.578852
3 1 0.316893 0.6744 0.429908
4 1 0.386853 0.689952 0.689958
11 1 0.4299 0.674404 0.316796
12 1 0.434455 0.70408 0.543284
19 1 0.428133 0.556817 0.427974
20 1 0.434448 0.543276 0.704086
27 2 0.30738 0.542907 0.3074
28 2 0.321344 0.57884 0.578835
7 1 0.543221 0.703894 0.434442
8 1 0.546587 0.671404 0.671408
15 1 0.689898 0.689919 0.386864
16 1 0.671315 0.671329 0.546592
23 1 0.703873 0.54325 0.434463
24 1 0.671332 0.546591 0.67135
31 2 0.578878 0.578861 0.321103
32 2 0.553884 0.554033 0.554076
ITEM: TIMESTEP
1300
ITEM: NUMBER OF ATOMS
32
ITEM: BOX BOUNDS pp pp pp
-4.5700000000000003e+00 1.0029999999999999e+01
-4.5700000000000003e+00 1.0029999999999999e+01
-4.5700000000000003e+00 1.0029999999999999e+01
ITEM: ATOMS id type xs ys zs
1 1 0.276238 0.458037 0.45805
2 1 0.317054 0.429939 0.674345
9 1 0.458002 0.458048 0.276284
10 1 0.428182 0.427668 0.556595
17 1 0.457999 0.276272 0.458058
18 1 0.429914 0.31674 0.674358
25 2 0.34239 0.342422 0.342431
26 2 0.307277 0.307342 0.54291
5 1 0.557192 0.428347 0.4282
6 1 0.543141 0.434397 0.70387
13 1 0.674489 0.429864 0.316716
14 1 0.703758 0.43451 0.543296
21 1 0.674486 0.316805 0.42987
22 1 0.689835 0.386868 0.689947
29 2 0.542902 0.30752 0.307539
30 2 0.578924 0.321019 0.578837
3 1 0.317067 0.674373 0.429929
4 1 0.386832 0.690032 0.690056
11 1 0.429898 0.674391 0.316664
12 1 0.434463 0.704445 0.543383
19 1 0.428334 0.55673 0.427673
20 1 0.434436 0.54335 0.704473
27 2 0.307317 0.542908 0.307401
28 2 0.321792 0.578788 0.578769
7 1 0.543118 0.703672 0.434411
8 1 0.546578 0.671554 0.67157
15 1 0.689804 0.689892 0.386877
16 1 0.671186 0.671243 0.546599
23 1 0.703588 0.54324 0.434497
24 1 0.671255 0.546594 0.671329
31 2 0.578944 0.578877 0.320796
32 2 0.553525 0.554143 0.554322
ITEM: TIMESTEP
1400
ITEM: NUMBER OF ATOMS
32
ITEM: BOX BOUNDS pp pp pp
-4.5700000000000003e+00 1.0029999999999999e+01
-4.5700000000000003e+00 1.0029999999999999e+01
-4.5700000000000003e+00 1.0029999999999999e+01
ITEM: ATOMS id type xs ys zs
1 1 0.276136 0.458047 0.458105
2 1 0.317783 0.430086 0.674131
9 1 0.457901 0.458086 0.276305
10 1 0.428527 0.426357 0.555736
17 1 0.457882 0.276242 0.458125
18 1 0.42996 0.316439 0.674191
25 2 0.342314 0.342447 0.342486
26 2 0.306882 0.307156 0.542923
5 1 0.558225 0.429186 0.428589
6 1 0.542759 0.434244 0.70356
13 1 0.674736 0.429764 0.316361
14 1 0.703133 0.434691 0.543434
21 1 0.674723 0.316721 0.429781
22 1 0.68953 0.386899 0.690012
29 2 0.54289 0.307891 0.307971
30 2 0.579138 0.320451 0.578772
3 1 0.317829 0.674255 0.430035
4 1 0.386732 0.690383 0.690473
11 1 0.429892 0.674329 0.316127
12 1 0.434507 0.706009 0.543835
19 1 0.429162 0.556309 0.426393
20 1 0.434379 0.543716 0.706153
27 2 0.307053 0.542914 0.307406
28 2 0.32367 0.57857 0.578495
7 1 0.542673 0.702743 0.434306
8 1 0.546545 0.672182 0.672244
15 1 0.689401 0.689793 0.38693
16 1 0.670635 0.67089 0.546628
23 1 0.702458 0.543227 0.434627
24 1 0.670925 0.546607 0.671242
31 2 0.579225 0.578935 0.319525
32 2 0.552034 0.55459 0.555338
ITEM: TIMESTEP
1500
ITEM: NUMBER OF ATOMS
32
ITEM: BOX BOUNDS pp pp pp
-4.5700000000000003e+00 1.0029999999999999e+01
-4.5700000000000003e+00 1.0029999999999999e+01
-4.5700000000000003e+00 1.0029999999999999e+01
ITEM: ATOMS id type xs ys zs
1 1 0.275571 0.458086 0.458356
2 1 0.321608 0.431127 0.673017
9 1 0.457418 0.458075 0.275891
10 1 0.429808 0.420798 0.550813
17 1 0.457241 0.275366 0.458156
18 1 0.430211 0.315511 0.673253
25 2 0.342034 0.34256 0.342734
26 2 0.305202 0.306331 0.543009
5 1 0.561677 0.431972 0.429844
6 1 0.540622 0.43406 0.702026
13 1 0.675619 0.429605 0.315332
14 1 0.701031 0.435363 0.544012
21 1 0.675608 0.316644 0.429553
22 1 0.687992 0.387098 0.690341
29 2 0.54287 0.309303 0.309637
30 2 0.58 0.318256 0.578446
3 1 0.321576 0.673611 0.430805
4 1 0.386038 0.692095 0.692303
11 1 0.429947 0.673891 0.31422
12 1 0.434844 0.712821 0.546668
19 1 0.43238 0.553561 0.421111
20 1 0.434127 0.546507 0.713827
27 2 0.305968 0.542954 0.30743
28 2 0.330791 0.577704 0.577495
7 1 0.54038 0.698772 0.434337
8 1 0.54644 0.67475 0.674933
15 1 0.687494 0.689627 0.387125
16 1 0.668327 0.669607 0.546765
23 1 0.698826 0.543529 0.434934
24 1 0.669491 0.546667 0.670974
31 2 0.580398 0.579101 0.314632
32 2 0.546647 0.556116 0.559118
ITEM: TIMESTEP
1600
ITEM: NUMBER OF ATOMS
32
ITEM: BOX BOUNDS pp pp pp
-4.5700000000000003e+00 1.0029999999999999e+01
-4.5700000000000003e+00 1.0029999999999999e+01
-4.5700000000000003e+00 1.0029999999999999e+01
ITEM: ATOMS id type xs ys zs
1 1 0.273991 0.458982 0.460206
2 1 0.337499 0.435516 0.669449
9 1 0.453922 0.456429 0.267555
10 1 0.433383 0.410537 0.528148
17 1 0.451606 0.26091 0.456023
18 1 0.432066 0.315295 0.664388
25 2 0.341815 0.343278 0.344346
26 2 0.300116 0.304035 0.543949
5 1 0.572601 0.438473 0.432767
6 1 0.529812 0.436474 0.697692
13 1 0.67844 0.430623 0.313682
14 1 0.698197 0.437457 0.546323
21 1 0.678425 0.317392 0.429623
22 1 0.67844 0.388195 0.692386
29 2 0.542897 0.313485 0.315148
30 2 0.581871 0.312659 0.57615
3 1 0.33831 0.671853 0.434988
4 1 0.379774 0.699161 0.698266
11 1 0.431257 0.66838 0.310562
12 1 0.438957 0.726269 0.561007
19 1 0.43999 0.539574 0.411136
20 1 0.437254 0.561192 0.728203
27 2 0.303008 0.543387 0.308162
28 2 0.341691 0.57734 0.576907
7 1 0.528917 0.687214 0.437852
8 1 0.545518 0.681386 0.681528
15 1 0.676514 0.691882 0.387619
16 1 0.662042 0.668202 0.547249
23 1 0.696293 0.546991 0.434265
24 1 0.666075 0.547087 0.67231
31 2 0.58378 0.5785 0.303271
32 2 0.540356 0.557579 0.566317
ITEM: TIMESTEP
1700
ITEM: NUMBER OF ATOMS
32
ITEM: BOX BOUNDS pp pp pp
-4.5700000000000003e+00 1.0029999999999999e+01
-4.5700000000000003e+00 1.0029999999999999e+01
-4.5700000000000003e+00 1.0029999999999999e+01
ITEM: ATOMS id type xs ys zs
1 1 0.274355 0.464835 0.468854
2 1 0.363455 0.433217 0.666504
9 1 0.439063 0.456306 0.24434
10 1 0.43256 0.399942 0.508146
17 1 0.436114 0.233811 0.456745
18 1 0.433808 0.289156 0.638312
25 2 0.345437 0.348955 0.354726
26 2 0.29563 0.304793 0.546617
5 1 0.591813 0.447523 0.439263
6 1 0.514017 0.423827 0.700349
13 1 0.68475 0.433034 0.311812
14 1 0.703415 0.44613 0.556935
21 1 0.686668 0.317604 0.429877
22 1 0.65971 0.387082 0.695207
29 2 0.541397 0.325459 0.333457
30 2 0.580838 0.313036 0.562309
3 1 0.364018 0.678123 0.432802
4 1 0.368407 0.699564 0.699974
11 1 0.434722 0.645173 0.284273
12 1 0.445846 0.722744 0.569645
19 1 0.44628 0.531113 0.406039
20 1 0.441109 0.565695 0.718401
27 2 0.302033 0.545314 0.313842
28 2 0.333864 0.585569 0.580217
7 1 0.517471 0.683115 0.432036
8 1 0.550315 0.679647 0.681259
15 1 0.654343 0.701262 0.385707
16 1 0.656101 0.676309 0.548098
23 1 0.710601 0.562255 0.431797
24 1 0.666847 0.55108 0.679239
31 2 0.586242 0.569457 0.301322
32 2 0.544718 0.552962 0.567038
ITEM: TIMESTEP
1800
ITEM: NUMBER OF ATOMS
32
ITEM: BOX BOUNDS pp pp pp
-4.5700000000000003e+00 1.0029999999999999e+01
-4.5700000000000003e+00 1.0029999999999999e+01
-4.5700000000000003e+00 1.0029999999999999e+01
ITEM: ATOMS id type xs ys zs
17 1 0.441166 0.247295 0.471045
1 1 0.267549 0.463103 0.482837
2 1 0.352006 0.426289 0.635936
9 1 0.447398 0.466577 0.267662
10 1 0.433177 0.406926 0.502258
18 1 0.43427 0.266672 0.625573
25 2 0.336948 0.355514 0.358002
26 2 0.280617 0.30474 0.548106
5 1 0.608973 0.457367 0.438191
6 1 0.503916 0.392849 0.687757
13 1 0.698872 0.425846 0.310098
14 1 0.711881 0.457065 0.554547
21 1 0.709597 0.329021 0.431749
22 1 0.664154 0.396877 0.686708
29 2 0.543084 0.329425 0.350939
30 2 0.58827 0.322176 0.55147
3 1 0.350662 0.673774 0.418332
4 1 0.38151 0.693349 0.696554
11 1 0.437324 0.624918 0.27351
12 1 0.450149 0.716417 0.555645
19 1 0.441094 0.541641 0.417391
20 1 0.439869 0.545091 0.715031
27 2 0.289485 0.547053 0.322199
28 2 0.332431 0.592976 0.575827
7 1 0.521769 0.679351 0.422805
8 1 0.552063 0.670285 0.680665
15 1 0.671432 0.697429 0.374557
16 1 0.64159 0.678066 0.536574
23 1 0.717155 0.569059 0.440204
24 1 0.678386 0.560565 0.671386
31 2 0.594814 0.564261 0.307518
32 2 0.5384 0.543313 0.574323
ITEM: TIMESTEP
1900
ITEM: NUMBER OF ATOMS
32
ITEM: BOX BOUNDS pp pp pp
-4.5700000000000003e+00 1.0029999999999999e+01
-4.5700000000000003e+00 1.0029999999999999e+01
-4.5700000000000003e+00 1.0029999999999999e+01
ITEM: ATOMS id type xs ys zs
17 1 0.433979 0.235298 0.460986
1 1 0.258886 0.458659 0.485873
2 1 0.329712 0.429041 0.637539
9 1 0.440548 0.468412 0.273523
10 1 0.430187 0.393527 0.504136
18 1 0.4224 0.282824 0.616029
25 2 0.333134 0.348249 0.354386
26 2 0.278741 0.291561 0.540363
5 1 0.613191 0.464816 0.43995
6 1 0.492683 0.4029 0.693276
13 1 0.684169 0.420514 0.304016
14 1 0.728748 0.451445 0.550559
21 1 0.710544 0.333789 0.435254
22 1 0.646805 0.433703 0.686189
29 2 0.544958 0.325152 0.349405
30 2 0.59209 0.320936 0.559843
3 1 0.361817 0.688781 0.425634
4 1 0.396655 0.691141 0.697357
11 1 0.430001 0.631733 0.289139
12 1 0.472919 0.716573 0.554358
19 1 0.449232 0.540393 0.422528
20 1 0.423449 0.542933 0.721269
27 2 0.286313 0.54632 0.331715
28 2 0.340112 0.597303 0.567497
7 1 0.521141 0.694618 0.402764
8 1 0.556352 0.66533 0.685908
15 1 0.674218 0.704897 0.377871
16 1 0.624158 0.676279 0.536545
23 1 0.726688 0.574206 0.436952
24 1 0.686962 0.584918 0.64536
31 2 0.601 0.569694 0.304923
32 2 0.540895 0.52738 0.584812
ITEM: TIMESTEP
2000
ITEM: NUMBER OF ATOMS
32
ITEM: BOX BOUNDS pp pp pp
-4.5700000000000003e+00 1.0029999999999999e+01
-4.5700000000000003e+00 1.0029999999999999e+01
-4.5700000000000003e+00 1.0029999999999999e+01
ITEM: ATOMS id type xs ys zs
17 1 0.438155 0.238454 0.467822
1 1 0.254661 0.444472 0.488416
2 1 0.335689 0.423955 0.634894
9 1 0.441067 0.465775 0.269125
10 1 0.423443 0.402793 0.495067
18 1 0.425677 0.280466 0.623987
25 2 0.337919 0.346127 0.347804
26 2 0.281938 0.2836 0.531596
5 1 0.607815 0.461384 0.434674
6 1 0.487757 0.403754 0.710349
13 1 0.669782 0.415559 0.292546
14 1 0.713954 0.444296 0.551606
21 1 0.697949 0.325027 0.430998
22 1 0.647408 0.434801 0.69513
29 2 0.535942 0.326374 0.355129
30 2 0.582588 0.322208 0.562821
3 1 0.37096 0.690058 0.421811
4 1 0.393592 0.703768 0.683773
11 1 0.435298 0.635636 0.279724
12 1 0.473349 0.712355 0.550751
19 1 0.46856 0.552859 0.416767
20 1 0.416569 0.548966 0.713087
27 2 0.30286 0.545916 0.357082
28 2 0.344014 0.585658 0.560044
7 1 0.522446 0.709032 0.399769
8 1 0.554769 0.664369 0.683934
15 1 0.674426 0.711804 0.373591
16 1 0.627058 0.68241 0.530164
23 1 0.714733 0.577213 0.451218
24 1 0.703508 0.584432 0.621101
31 2 0.595593 0.578327 0.306307
32 2 0.541867 0.529621 0.592585
ITEM: TIMESTEP
2100
ITEM: NUMBER OF ATOMS
32
ITEM: BOX BOUNDS pp pp pp
-4.5700000000000003e+00 1.0029999999999999e+01
-4.5700000000000003e+00 1.0029999999999999e+01
-4.5700000000000003e+00 1.0029999999999999e+01
ITEM: ATOMS id type xs ys zs
17 1 0.440754 0.237164 0.470835
1 1 0.24707 0.438284 0.490798
2 1 0.340755 0.42089 0.639709
9 1 0.446025 0.475137 0.274883
10 1 0.424498 0.408352 0.495466
18 1 0.424228 0.281139 0.637243
25 2 0.329959 0.345057 0.344568
26 2 0.287056 0.278587 0.534199
5 1 0.607735 0.465197 0.43842
6 1 0.494967 0.404083 0.707735
13 1 0.660979 0.418517 0.291906
14 1 0.721258 0.431395 0.54606
21 1 0.688697 0.325961 0.425621
22 1 0.654282 0.423145 0.685585
29 2 0.531983 0.327961 0.351141
30 2 0.573804 0.32394 0.565104
3 1 0.365401 0.698659 0.41664
4 1 0.384573 0.691835 0.670676
11 1 0.438872 0.633565 0.284649
12 1 0.465447 0.702643 0.537595
19 1 0.47124 0.563836 0.427642
20 1 0.427689 0.548752 0.71592
27 2 0.304754 0.546344 0.359716
28 2 0.339291 0.57751 0.559316
7 1 0.530504 0.717538 0.387716
8 1 0.547359 0.680456 0.677193
15 1 0.689942 0.704341 0.378229
16 1 0.62625 0.700781 0.535033
23 1 0.708428 0.581128 0.465621
24 1 0.700433 0.580555 0.630752
31 2 0.605436 0.57761 0.304595
32 2 0.547584 0.534401 0.590943
ITEM: TIMESTEP
2200
ITEM: NUMBER OF ATOMS
32
ITEM: BOX BOUNDS pp pp pp
-4.5700000000000003e+00 1.0029999999999999e+01
-4.5700000000000003e+00 1.0029999999999999e+01
-4.5700000000000003e+00 1.0029999999999999e+01
ITEM: ATOMS id type xs ys zs
17 1 0.436842 0.236647 0.466156
1 1 0.250173 0.442472 0.485142
2 1 0.337287 0.416104 0.643948
9 1 0.437071 0.467351 0.278166
10 1 0.422788 0.404207 0.501648
18 1 0.43063 0.281947 0.62735
25 2 0.324415 0.346329 0.354795
26 2 0.286916 0.280947 0.543469
5 1 0.607652 0.459536 0.435309
6 1 0.502498 0.403779 0.698904
13 1 0.671336 0.412347 0.295301
14 1 0.73029 0.432157 0.546135
21 1 0.694835 0.322267 0.425799
22 1 0.654341 0.436647 0.680058
29 2 0.526675 0.333557 0.349242
30 2 0.579699 0.327132 0.554107
3 1 0.364423 0.688243 0.415152
4 1 0.38233 0.696271 0.672162
11 1 0.443167 0.636486 0.276676
12 1 0.469456 0.69547 0.535543
19 1 0.462779 0.554575 0.419163
20 1 0.426505 0.552623 0.714921
27 2 0.29593 0.548312 0.344373
28 2 0.339548 0.574833 0.558124
7 1 0.534018 0.717059 0.389143
8 1 0.541068 0.676554 0.681651
15 1 0.689024 0.700816 0.39112
16 1 0.630782 0.694739 0.542861
23 1 0.709866 0.573869 0.478735
24 1 0.700928 0.58929 0.640397
31 2 0.60889 0.57898 0.315878
32 2 0.550402 0.534968 0.586496
ITEM: TIMESTEP
2300
ITEM: NUMBER OF ATOMS
32
ITEM: BOX BOUNDS pp pp pp
-4.5700000000000003e+00 1.0029999999999999e+01
-4.5700000000000003e+00 1.0029999999999999e+01
-4.5700000000000003e+00 1.0029999999999999e+01
ITEM: ATOMS id type xs ys zs
17 1 0.434061 0.247076 0.462589
1 1 0.237135 0.443646 0.495923
2 1 0.335465 0.422705 0.64275
9 1 0.420397 0.456864 0.261151
10 1 0.422202 0.402443 0.506781
18 1 0.434396 0.27915 0.621424
25 2 0.321081 0.349297 0.365055
26 2 0.280648 0.28742 0.55227
5 1 0.623485 0.454957 0.436821
6 1 0.498445 0.41021 0.692687
13 1 0.671993 0.419587 0.290425
14 1 0.738003 0.422804 0.54476
21 1 0.699479 0.314557 0.413922
22 1 0.655127 0.435232 0.680264
29 2 0.528994 0.337003 0.345827
30 2 0.592947 0.323077 0.554583
3 1 0.371593 0.688229 0.40885
4 1 0.377594 0.690595 0.667507
11 1 0.44462 0.620078 0.279233
12 1 0.468917 0.71239 0.545531
19 1 0.468999 0.534943 0.411738
20 1 0.419348 0.548678 0.705313
27 2 0.293355 0.549596 0.347172
28 2 0.34405 0.573457 0.541013
7 1 0.530455 0.704716 0.398849
8 1 0.544522 0.660176 0.692369
15 1 0.680637 0.711176 0.402274
16 1 0.623048 0.700559 0.548295
23 1 0.709662 0.579785 0.488394
24 1 0.691148 0.587407 0.647032
31 2 0.612943 0.580655 0.319939
32 2 0.548018 0.538717 0.579504
ITEM: TIMESTEP
2400
ITEM: NUMBER OF ATOMS
32
ITEM: BOX BOUNDS pp pp pp
-4.5700000000000003e+00 1.0029999999999999e+01
-4.5700000000000003e+00 1.0029999999999999e+01