ITEM: TIMESTEP
0
ITEM: NUMBER OF ATOMS
192
ITEM: BOX BOUNDS pp pp pp
-7.2437509999999996e+00 1.9956250000000001e+01
-7.2437509999999996e+00 1.9956250000000001e+01
-7.2437509999999996e+00 1.9956250000000001e+01
ITEM: ATOMS id type xs ys zs
65 1 0.266314 0.266314 0.266314
66 1 0.266314 0.266314 0.515579
137 1 0.328631 0.266314 0.328631
138 1 0.328631 0.266314 0.577895
177 1 0.390947 0.266314 0.390947
178 1 0.390947 0.266314 0.640211
69 1 0.515579 0.266314 0.266314
70 1 0.515579 0.266314 0.515579
89 1 0.453263 0.266314 0.453263
90 1 0.453263 0.266314 0.702528
93 1 0.702528 0.266314 0.453263
94 1 0.702528 0.266314 0.702528
141 1 0.577895 0.266314 0.328631
142 1 0.577895 0.266314 0.577895
181 1 0.640211 0.266314 0.390947
182 1 0.640211 0.266314 0.640211
73 1 0.266314 0.328631 0.328631
74 1 0.266314 0.328631 0.577895
121 1 0.266314 0.390947 0.390947
122 1 0.266314 0.390947 0.640211
1 2 0.359789 0.359789 0.359789
2 2 0.359789 0.359789 0.609053
9 2 0.422105 0.422105 0.422105
10 2 0.422105 0.422105 0.671369
25 2 0.297472 0.422105 0.297472
26 2 0.297472 0.422105 0.546737
41 2 0.422105 0.297472 0.297472
42 2 0.422105 0.297472 0.546737
57 2 0.297472 0.297472 0.422105
58 2 0.297472 0.297472 0.671369
113 1 0.328631 0.390947 0.453263
114 1 0.328631 0.390947 0.702528
129 1 0.328631 0.328631 0.266314
130 1 0.328631 0.328631 0.515579
145 1 0.390947 0.328631 0.453263
146 1 0.390947 0.328631 0.702528
185 1 0.390947 0.390947 0.266314
186 1 0.390947 0.390947 0.515579
29 2 0.546737 0.422105 0.297472
30 2 0.546737 0.422105 0.546737
33 2 0.484421 0.359789 0.484421
34 2 0.484421 0.359789 0.733686
61 2 0.546737 0.297472 0.422105
62 2 0.546737 0.297472 0.671369
77 1 0.515579 0.328631 0.328631
78 1 0.515579 0.328631 0.577895
81 1 0.453263 0.328631 0.390947
82 1 0.453263 0.328631 0.640211
125 1 0.515579 0.390947 0.390947
126 1 0.515579 0.390947 0.640211
161 1 0.453263 0.390947 0.328631
162 1 0.453263 0.390947 0.577895
5 2 0.609053 0.359789 0.359789
6 2 0.609053 0.359789 0.609053
13 2 0.671369 0.422105 0.422105
14 2 0.671369 0.422105 0.671369
45 2 0.671369 0.297472 0.297472
46 2 0.671369 0.297472 0.546737
85 1 0.702528 0.328631 0.390947
86 1 0.702528 0.328631 0.640211
117 1 0.577895 0.390947 0.453263
118 1 0.577895 0.390947 0.702528
133 1 0.577895 0.328631 0.266314
134 1 0.577895 0.328631 0.515579
149 1 0.640211 0.328631 0.453263
150 1 0.640211 0.328631 0.702528
165 1 0.702528 0.390947 0.328631
166 1 0.702528 0.390947 0.577895
189 1 0.640211 0.390947 0.266314
190 1 0.640211 0.390947 0.515579
37 2 0.733686 0.359789 0.484421
38 2 0.733686 0.359789 0.733686
67 1 0.266314 0.515579 0.266314
68 1 0.266314 0.515579 0.515579
153 1 0.266314 0.453263 0.453263
154 1 0.266314 0.453263 0.702528
17 2 0.359789 0.484421 0.484421
18 2 0.359789 0.484421 0.733686
43 2 0.422105 0.546737 0.297472
44 2 0.422105 0.546737 0.546737
59 2 0.297472 0.546737 0.422105
60 2 0.297472 0.546737 0.671369
97 1 0.390947 0.453263 0.328631
98 1 0.390947 0.453263 0.577895
105 1 0.328631 0.453263 0.390947
106 1 0.328631 0.453263 0.640211
139 1 0.328631 0.515579 0.328631
140 1 0.328631 0.515579 0.577895
179 1 0.390947 0.515579 0.390947
180 1 0.390947 0.515579 0.640211
49 2 0.484421 0.484421 0.359789
50 2 0.484421 0.484421 0.609053
63 2 0.546737 0.546737 0.422105
64 2 0.546737 0.546737 0.671369
71 1 0.515579 0.515579 0.266314
72 1 0.515579 0.515579 0.515579
91 1 0.453263 0.515579 0.453263
92 1 0.453263 0.515579 0.702528
157 1 0.515579 0.453263 0.453263
158 1 0.515579 0.453263 0.702528
169 1 0.453263 0.453263 0.266314
170 1 0.453263 0.453263 0.515579
21 2 0.609053 0.484421 0.484421
22 2 0.609053 0.484421 0.733686
47 2 0.671369 0.546737 0.297472
48 2 0.671369 0.546737 0.546737
95 1 0.702528 0.515579 0.453263
96 1 0.702528 0.515579 0.702528
101 1 0.640211 0.453263 0.328631
102 1 0.640211 0.453263 0.577895
109 1 0.577895 0.453263 0.390947
110 1 0.577895 0.453263 0.640211
143 1 0.577895 0.515579 0.328631
144 1 0.577895 0.515579 0.577895
173 1 0.702528 0.453263 0.266314
174 1 0.702528 0.453263 0.515579
183 1 0.640211 0.515579 0.390947
184 1 0.640211 0.515579 0.640211
53 2 0.733686 0.484421 0.359789
54 2 0.733686 0.484421 0.609053
75 1 0.266314 0.577895 0.328631
76 1 0.266314 0.577895 0.577895
123 1 0.266314 0.640211 0.390947
124 1 0.266314 0.640211 0.640211
155 1 0.266314 0.702528 0.453263
156 1 0.266314 0.702528 0.702528
3 2 0.359789 0.609053 0.359789
4 2 0.359789 0.609053 0.609053
11 2 0.422105 0.671369 0.422105
12 2 0.422105 0.671369 0.671369
27 2 0.297472 0.671369 0.297472
28 2 0.297472 0.671369 0.546737
99 1 0.390947 0.702528 0.328631
100 1 0.390947 0.702528 0.577895
107 1 0.328631 0.702528 0.390947
108 1 0.328631 0.702528 0.640211
115 1 0.328631 0.640211 0.453263
116 1 0.328631 0.640211 0.702528
131 1 0.328631 0.577895 0.266314
132 1 0.328631 0.577895 0.515579
147 1 0.390947 0.577895 0.453263
148 1 0.390947 0.577895 0.702528
187 1 0.390947 0.640211 0.266314
188 1 0.390947 0.640211 0.515579
31 2 0.546737 0.671369 0.297472
32 2 0.546737 0.671369 0.546737
35 2 0.484421 0.609053 0.484421
36 2 0.484421 0.609053 0.733686
79 1 0.515579 0.577895 0.328631
80 1 0.515579 0.577895 0.577895
83 1 0.453263 0.577895 0.390947
84 1 0.453263 0.577895 0.640211
127 1 0.515579 0.640211 0.390947
128 1 0.515579 0.640211 0.640211
159 1 0.515579 0.702528 0.453263
160 1 0.515579 0.702528 0.702528
163 1 0.453263 0.640211 0.328631
164 1 0.453263 0.640211 0.577895
171 1 0.453263 0.702528 0.266314
172 1 0.453263 0.702528 0.515579
7 2 0.609053 0.609053 0.359789
8 2 0.609053 0.609053 0.609053
15 2 0.671369 0.671369 0.422105
16 2 0.671369 0.671369 0.671369
87 1 0.702528 0.577895 0.390947
88 1 0.702528 0.577895 0.640211
103 1 0.640211 0.702528 0.328631
104 1 0.640211 0.702528 0.577895
111 1 0.577895 0.702528 0.390947
112 1 0.577895 0.702528 0.640211
119 1 0.577895 0.640211 0.453263
120 1 0.577895 0.640211 0.702528
135 1 0.577895 0.577895 0.266314
136 1 0.577895 0.577895 0.515579
151 1 0.640211 0.577895 0.453263
152 1 0.640211 0.577895 0.702528
167 1 0.702528 0.640211 0.328631
168 1 0.702528 0.640211 0.577895
175 1 0.702528 0.702528 0.266314
176 1 0.702528 0.702528 0.515579
191 1 0.640211 0.640211 0.266314
192 1 0.640211 0.640211 0.515579
39 2 0.733686 0.609053 0.484421
40 2 0.733686 0.609053 0.733686
19 2 0.359789 0.733686 0.484421
20 2 0.359789 0.733686 0.733686
51 2 0.484421 0.733686 0.359789
52 2 0.484421 0.733686 0.609053
23 2 0.609053 0.733686 0.484421
24 2 0.609053 0.733686 0.733686
55 2 0.733686 0.733686 0.359789
56 2 0.733686 0.733686 0.609053
ITEM: TIMESTEP
100
ITEM: NUMBER OF ATOMS
192
ITEM: BOX BOUNDS pp pp pp
-7.2437509999999996e+00 1.9956250000000001e+01
-7.2437509999999996e+00 1.9956250000000001e+01
-7.2437509999999996e+00 1.9956250000000001e+01
ITEM: ATOMS id type xs ys zs
65 1 0.353349 0.351947 0.277838
66 1 0.314614 0.319334 0.52544
137 1 0.364656 0.265772 0.363315
138 1 0.360368 0.266205 0.617761
177 1 0.384735 0.268282 0.381059
178 1 0.383101 0.273687 0.630444
69 1 0.521921 0.326724 0.304534
70 1 0.492261 0.250257 0.489807
89 1 0.477524 0.248034 0.479268
90 1 0.501805 0.260293 0.728572
93 1 0.736589 0.266844 0.503225
94 1 0.659724 0.216894 0.669424
141 1 0.612988 0.270338 0.379292
142 1 0.55424 0.304139 0.550607
181 1 0.613238 0.270364 0.378743
182 1 0.628174 0.258462 0.616916
73 1 0.270607 0.361964 0.366807
74 1 0.264201 0.352952 0.622487
121 1 0.272734 0.378085 0.381631
122 1 0.272534 0.378686 0.636707
1 2 0.364287 0.360121 0.372066
2 2 0.358809 0.361452 0.604182
9 2 0.429748 0.428984 0.43277
10 2 0.430068 0.42004 0.664253
25 2 0.306884 0.426966 0.308103
26 2 0.277058 0.40839 0.545601
41 2 0.429927 0.305526 0.307254
42 2 0.411882 0.286995 0.539249
57 2 0.305563 0.303022 0.433407
58 2 0.317164 0.310008 0.686391
113 1 0.350459 0.37718 0.476319
114 1 0.354882 0.391254 0.713359
129 1 0.358452 0.357128 0.277107
130 1 0.32859 0.331601 0.517847
145 1 0.376187 0.353526 0.476183
146 1 0.392472 0.354554 0.721096
185 1 0.383366 0.382871 0.282534
186 1 0.407158 0.38453 0.517697
29 2 0.549496 0.414003 0.272145
30 2 0.535621 0.412562 0.544767
33 2 0.487519 0.33953 0.478718
34 2 0.493072 0.349251 0.715346
61 2 0.516776 0.274343 0.394484
62 2 0.541486 0.280856 0.648677
77 1 0.503835 0.358522 0.332669
78 1 0.500162 0.330806 0.57949
81 1 0.47132 0.358672 0.379968
82 1 0.450792 0.321165 0.632284
125 1 0.506104 0.385558 0.395642
126 1 0.533372 0.417455 0.648402
161 1 0.495811 0.367765 0.333712
162 1 0.441558 0.408564 0.567869
5 2 0.587641 0.358438 0.366415
6 2 0.609365 0.358623 0.605964
13 2 0.666685 0.418958 0.424657
14 2 0.697804 0.40349 0.665567
45 2 0.681635 0.317809 0.335435
46 2 0.650515 0.286776 0.527946
85 1 0.731267 0.353045 0.403725
86 1 0.704232 0.336996 0.596475
117 1 0.56374 0.411744 0.445352
118 1 0.594587 0.354622 0.69961
133 1 0.62082 0.353942 0.274765
134 1 0.569554 0.326535 0.523124
149 1 0.658371 0.324299 0.43646
150 1 0.601474 0.348745 0.69996
165 1 0.729019 0.394474 0.357544
166 1 0.68598 0.405697 0.56948
189 1 0.638266 0.387976 0.289463
190 1 0.657835 0.40915 0.537983
37 2 0.726639 0.358764 0.499184
38 2 0.675528 0.299311 0.684121
67 1 0.325804 0.516952 0.324896
68 1 0.262843 0.494578 0.506741
153 1 0.253393 0.470264 0.477077
154 1 0.263954 0.494764 0.733211
17 2 0.350612 0.469384 0.492689
18 2 0.354056 0.486948 0.713024
43 2 0.424886 0.543018 0.299954
44 2 0.397957 0.549013 0.550388
59 2 0.291041 0.527874 0.416213
60 2 0.280403 0.538704 0.656907
97 1 0.390296 0.464044 0.346155
98 1 0.389579 0.458626 0.585005
105 1 0.344961 0.457121 0.39063
106 1 0.319771 0.452513 0.629388
139 1 0.345903 0.50638 0.340241
140 1 0.318213 0.501546 0.579155
179 1 0.400438 0.51684 0.406248
180 1 0.42202 0.535956 0.666024
49 2 0.489999 0.463294 0.348472
50 2 0.484555 0.493461 0.599609
63 2 0.535548 0.53503 0.426121
64 2 0.535112 0.536449 0.684402
71 1 0.51256 0.505476 0.267207
72 1 0.542459 0.54503 0.538005
91 1 0.433843 0.525805 0.451069
92 1 0.441192 0.5189 0.683991
157 1 0.527435 0.438362 0.44579
158 1 0.510267 0.447113 0.710104
169 1 0.472661 0.469728 0.25475
170 1 0.454908 0.473225 0.513321
21 2 0.607855 0.479569 0.493627
22 2 0.605658 0.448434 0.709277
47 2 0.641445 0.536961 0.300943
48 2 0.659125 0.557091 0.539759
95 1 0.675818 0.531828 0.441546
96 1 0.690622 0.494355 0.694976
101 1 0.628592 0.443046 0.32683
102 1 0.636994 0.447209 0.577809
109 1 0.576544 0.450284 0.403669
110 1 0.543624 0.427858 0.647093
143 1 0.550671 0.543354 0.330008
144 1 0.561205 0.543247 0.559482
173 1 0.719188 0.501104 0.270441
174 1 0.706155 0.459517 0.50849
183 1 0.650512 0.52817 0.417225
184 1 0.649056 0.518675 0.659077
53 2 0.715955 0.486966 0.358957
54 2 0.719371 0.485315 0.600539
75 1 0.270062 0.611854 0.359482
76 1 0.297085 0.5637 0.568858
123 1 0.273536 0.628481 0.37255
124 1 0.261604 0.627291 0.625821
155 1 0.277057 0.721873 0.485442
156 1 0.22503 0.704622 0.661644
3 2 0.360461 0.596647 0.370327
4 2 0.360587 0.61223 0.625005
11 2 0.427159 0.672018 0.423526
12 2 0.402923 0.705061 0.676121
27 2 0.321552 0.686372 0.327932
28 2 0.297484 0.650078 0.537429
99 1 0.405381 0.725539 0.351054
100 1 0.393667 0.691214 0.580792
107 1 0.350729 0.724207 0.406467
108 1 0.335124 0.707173 0.609018
115 1 0.328682 0.662278 0.443448
116 1 0.343388 0.600753 0.715064
131 1 0.359094 0.615089 0.277342
132 1 0.312478 0.562276 0.504264
147 1 0.386114 0.570373 0.45622
148 1 0.351205 0.592174 0.714689
187 1 0.394325 0.637456 0.291643
188 1 0.405876 0.653037 0.546523
31 2 0.541124 0.636232 0.291709
32 2 0.560978 0.65606 0.53729
35 2 0.476561 0.600798 0.492834
36 2 0.449226 0.608843 0.71465
79 1 0.523874 0.55817 0.331883
80 1 0.533385 0.573618 0.567707
83 1 0.452139 0.579517 0.397057
84 1 0.424676 0.546518 0.652401
127 1 0.532587 0.654863 0.42593
128 1 0.521162 0.641621 0.658099
159 1 0.531909 0.669715 0.44031
160 1 0.496831 0.69188 0.69483
163 1 0.445582 0.638379 0.326562
164 1 0.419399 0.650956 0.555022
171 1 0.493964 0.708626 0.266626
172 1 0.46666 0.700626 0.508416
7 2 0.610669 0.612585 0.38103
8 2 0.606623 0.601199 0.625453
15 2 0.700053 0.685763 0.378906
16 2 0.683743 0.678936 0.638295
87 1 0.70639 0.587759 0.372623
88 1 0.709058 0.58121 0.620947
103 1 0.608228 0.702001 0.338018
104 1 0.661103 0.667251 0.54146
111 1 0.605255 0.710436 0.363399
112 1 0.583699 0.702237 0.62016
119 1 0.544008 0.654004 0.436548
120 1 0.542277 0.60652 0.74621
135 1 0.569647 0.560691 0.251884
136 1 0.559305 0.563252 0.530472
151 1 0.650695 0.549986 0.438402
152 1 0.593559 0.587012 0.736952
167 1 0.689616 0.620543 0.313816
168 1 0.671728 0.657042 0.541333
175 1 0.707291 0.706784 0.197733
176 1 0.720879 0.715917 0.465848
191 1 0.632248 0.629104 0.279642
192 1 0.66189 0.657789 0.535738
39 2 0.709439 0.617135 0.464184
40 2 0.681697 0.589643 0.7097
19 2 0.366497 0.725469 0.50203
20 2 0.298956 0.677179 0.695588
51 2 0.504789 0.712135 0.357191
52 2 0.482268 0.706288 0.601702
23 2 0.622168 0.701935 0.458479
24 2 0.591467 0.6758 0.70996
55 2 0.678884 0.706861 0.277743
56 2 0.722895 0.733033 0.556282
ITEM: TIMESTEP
200
ITEM: NUMBER OF ATOMS
192
ITEM: BOX BOUNDS pp pp pp
-7.2437509999999996e+00 1.9956250000000001e+01
-7.2437509999999996e+00 1.9956250000000001e+01
-7.2437509999999996e+00 1.9956250000000001e+01
ITEM: ATOMS id type xs ys zs
65 1 0.35691 0.355228 0.277662
66 1 0.315582 0.318979 0.525337
137 1 0.363867 0.26588 0.363153
138 1 0.360651 0.266542 0.617536
177 1 0.386193 0.268568 0.382195
178 1 0.383894 0.274458 0.630467
69 1 0.522397 0.328515 0.3022
70 1 0.491347 0.24958 0.487558
89 1 0.476899 0.247843 0.477914
90 1 0.501901 0.25972 0.727349
93 1 0.736802 0.26704 0.505797
94 1 0.655592 0.217451 0.665791
141 1 0.611445 0.271016 0.381531
142 1 0.553748 0.307597 0.549251
181 1 0.611472 0.270909 0.381053
182 1 0.628039 0.257928 0.615435
73 1 0.270105 0.361972 0.366606
74 1 0.264514 0.353191 0.623321
121 1 0.27259 0.377396 0.381121
122 1 0.273468 0.379386 0.637331
1 2 0.364714 0.360565 0.372255
2 2 0.359506 0.362125 0.603909
9 2 0.430373 0.429565 0.43383
10 2 0.431676 0.420889 0.664466
25 2 0.306966 0.426761 0.308166
26 2 0.276455 0.407067 0.545538
41 2 0.430969 0.304957 0.30804
42 2 0.412151 0.286844 0.539209
57 2 0.30576 0.303154 0.433257
58 2 0.318274 0.31076 0.686644
113 1 0.352317 0.376315 0.476364
114 1 0.356655 0.391489 0.713543
129 1 0.35795 0.356426 0.277882
130 1 0.327651 0.329626 0.51863
145 1 0.375762 0.354142 0.476476
146 1 0.393248 0.355656 0.720957
185 1 0.382661 0.381617 0.282384
186 1 0.409357 0.384114 0.518159
29 2 0.551341 0.413855 0.270143
30 2 0.53454 0.413167 0.54494
33 2 0.487834 0.339024 0.477481
34 2 0.494491 0.348938 0.714878
61 2 0.513592 0.274059 0.392363
62 2 0.541491 0.280318 0.64726
77 1 0.503088 0.361647 0.330751
78 1 0.50008 0.330289 0.57818
81 1 0.472108 0.360786 0.381393
82 1 0.451039 0.320902 0.631603
125 1 0.50315 0.382402 0.392838
126 1 0.532995 0.419999 0.648168
161 1 0.498602 0.366674 0.331117
162 1 0.440428 0.413203 0.569433
5 2 0.586691 0.358466 0.367041
6 2 0.609508 0.359439 0.60644
13 2 0.666024 0.41864 0.425203
14 2 0.699498 0.403144 0.664762
45 2 0.681609 0.318074 0.33691
46 2 0.648976 0.287745 0.526525
85 1 0.7332 0.355197 0.404553
86 1 0.704062 0.335144 0.596564
117 1 0.563477 0.413061 0.445778
118 1 0.595048 0.352361 0.700227
133 1 0.621273 0.352296 0.275903
134 1 0.567268 0.326057 0.526693
149 1 0.661024 0.323017 0.434012
150 1 0.59951 0.348573 0.700416
165 1 0.730239 0.394458 0.359942
166 1 0.685687 0.406728 0.569043
189 1 0.639406 0.3879 0.291665
190 1 0.658212 0.408661 0.537157
37 2 0.72699 0.359013 0.499343
38 2 0.673545 0.298896 0.683932
67 1 0.328562 0.516141 0.325377
68 1 0.262431 0.493079 0.50608
153 1 0.253448 0.471157 0.478572
154 1 0.264719 0.494098 0.732714
17 2 0.350397 0.468766 0.492818
18 2 0.354573 0.486109 0.712701
43 2 0.425256 0.541983 0.301083
44 2 0.394608 0.548601 0.550811
59 2 0.290522 0.526678 0.415584
60 2 0.281675 0.538665 0.656277
97 1 0.391083 0.462583 0.347184
98 1 0.391182 0.458387 0.585132
105 1 0.346409 0.457829 0.389923
106 1 0.318321 0.452729 0.628566
139 1 0.344815 0.506509 0.339397
140 1 0.31589 0.496797 0.578544
179 1 0.402243 0.517339 0.407522
180 1 0.423008 0.536456 0.666044
49 2 0.491389 0.461824 0.347652
50 2 0.485178 0.496502 0.598619
63 2 0.533464 0.533209 0.426838
64 2 0.533364 0.534493 0.688227
71 1 0.514051 0.505353 0.267242
72 1 0.543682 0.546369 0.538321
91 1 0.432704 0.525909 0.453388
92 1 0.438894 0.520648 0.680905
157 1 0.528511 0.437796 0.445519
158 1 0.510833 0.445229 0.714355
169 1 0.472605 0.468069 0.25433
170 1 0.457271 0.479622 0.510467
21 2 0.608482 0.480208 0.494448
22 2 0.606072 0.446917 0.709074
47 2 0.63959 0.53603 0.300978
48 2 0.658077 0.559119 0.539494
95 1 0.673692 0.53257 0.440616
96 1 0.688953 0.495196 0.69348
101 1 0.62748 0.442652 0.327084
102 1 0.635254 0.44846 0.579592
109 1 0.574724 0.449131 0.40629
110 1 0.541965 0.42936 0.64653
143 1 0.549244 0.54369 0.331001
144 1 0.559198 0.545206 0.556918
173 1 0.717492 0.501189 0.27047
174 1 0.705925 0.459166 0.508893
183 1 0.651245 0.529368 0.41906
184 1 0.649038 0.518985 0.660966
53 2 0.715247 0.487273 0.359509
54 2 0.718193 0.486472 0.600428
75 1 0.270802 0.612125 0.3598
76 1 0.30251 0.561574 0.567791
123 1 0.274384 0.629 0.373355
124 1 0.26298 0.627048 0.625601
155 1 0.278594 0.720584 0.484232
156 1 0.226463 0.70261 0.660432
3 2 0.36089 0.596164 0.371283
4 2 0.363285 0.61407 0.62797
11 2 0.428341 0.672478 0.422864
12 2 0.403692 0.708978 0.675922
27 2 0.323254 0.686686 0.329518
28 2 0.29953 0.649756 0.537849
99 1 0.407271 0.727118 0.351214
100 1 0.394064 0.691453 0.580901
107 1 0.352239 0.726299 0.406938
108 1 0.335315 0.70763 0.609393
115 1 0.329468 0.663735 0.442325
116 1 0.341911 0.597883 0.716824
131 1 0.35914 0.614592 0.278397
132 1 0.310578 0.561994 0.503909
147 1 0.385294 0.570268 0.457069
148 1 0.348096 0.591577 0.716675
187 1 0.395575 0.637188 0.292679
188 1 0.40885 0.653773 0.549919
31 2 0.54141 0.634557 0.290724
32 2 0.562001 0.655744 0.536656
35 2 0.475977 0.60015 0.494334
36 2 0.447229 0.609798 0.714319
79 1 0.524043 0.556832 0.332527
80 1 0.535715 0.573249 0.565881
83 1 0.452721 0.580977 0.397822
84 1 0.424319 0.545366 0.652826
127 1 0.533629 0.656268 0.428927
128 1 0.520751 0.641463 0.659699
159 1 0.533356 0.666821 0.439353
160 1 0.497599 0.690749 0.694257
163 1 0.446037 0.63766 0.3267
164 1 0.416971 0.652129 0.554626
171 1 0.493392 0.706717 0.266711
172 1 0.467434 0.700452 0.507941
7 2 0.610477 0.612638 0.380987
8 2 0.60404 0.598761 0.626806
15 2 0.701639 0.68485 0.376319
16 2 0.682042 0.678496 0.636116
87 1 0.706299 0.587073 0.371242
88 1 0.707363 0.5818 0.621227
103 1 0.608209 0.703733 0.342016
104 1 0.661911 0.665567 0.539063
111 1 0.605797 0.709285 0.35969
112 1 0.58308 0.700278 0.621011
119 1 0.542226 0.655311 0.436607
120 1 0.539487 0.606568 0.747298
135 1 0.569899 0.559722 0.248805
136 1 0.558486 0.562903 0.53138
151 1 0.651303 0.549134 0.436865
152 1 0.59277 0.584764 0.739188
167 1 0.68643 0.620561 0.310948
168 1 0.668157 0.659415 0.538943
175 1 0.70672 0.707296 0.198826
176 1 0.721824 0.716598 0.463305
191 1 0.632154 0.627898 0.279066
192 1 0.662243 0.659774 0.535484
39 2 0.708472 0.61752 0.462949
40 2 0.680761 0.591198 0.710343
19 2 0.368713 0.724714 0.501579
20 2 0.299698 0.676194 0.696807
51 2 0.506205 0.710477 0.357146
52 2 0.482339 0.706947 0.602015
23 2 0.622515 0.701902 0.456368
24 2 0.592418 0.673605 0.710862
55 2 0.674424 0.708544 0.277249
56 2 0.722886 0.732576 0.554271
ITEM: TIMESTEP
300
ITEM: NUMBER OF ATOMS
192
ITEM: BOX BOUNDS pp pp pp
-7.2437509999999996e+00 1.9956250000000001e+01
-7.2437509999999996e+00 1.9956250000000001e+01
-7.2437509999999996e+00 1.9956250000000001e+01
ITEM: ATOMS id type xs ys zs
65 1 0.357584 0.355787 0.277585
66 1 0.315794 0.318902 0.525301
137 1 0.363692 0.265919 0.363108
138 1 0.36072 0.266728 0.617568
177 1 0.386529 0.268624 0.382448
178 1 0.384082 0.274607 0.63047
69 1 0.522472 0.328809 0.30181
70 1 0.491108 0.249425 0.487082
89 1 0.476388 0.247689 0.47753
90 1 0.501916 0.259617 0.727076
93 1 0.736639 0.267332 0.506048
94 1 0.654612 0.217659 0.664974
141 1 0.611165 0.27116 0.381923
142 1 0.553663 0.308275 0.549048
181 1 0.611169 0.271049 0.381458
182 1 0.628022 0.257874 0.615123
73 1 0.270072 0.361918 0.366528
74 1 0.264473 0.353111 0.623422
121 1 0.272588 0.377261 0.38101
122 1 0.27367 0.379531 0.637464
1 2 0.36484 0.360625 0.372298
2 2 0.359665 0.362242 0.603879
9 2 0.430574 0.42971 0.434049
10 2 0.431989 0.421054 0.664605
25 2 0.30701 0.426704 0.308174
26 2 0.276348 0.406762 0.545535
41 2 0.431108 0.304929 0.308
42 2 0.412211 0.286817 0.53913
57 2 0.305786 0.303198 0.433229
58 2 0.318533 0.3109 0.68664
113 1 0.352726 0.376145 0.476398
114 1 0.357061 0.391541 0.713591
129 1 0.357902 0.356265 0.278107
130 1 0.327428 0.329205 0.518814
145 1 0.375788 0.354327 0.476544
146 1 0.39339 0.355919 0.720901
185 1 0.38248 0.381323 0.282391
186 1 0.409932 0.384091 0.518318
29 2 0.551733 0.413841 0.269761
30 2 0.534197 0.413232 0.544886
33 2 0.487886 0.338942 0.477219
34 2 0.494502 0.348677 0.71457
61 2 0.513189 0.274003 0.392084
62 2 0.541654 0.280239 0.646999
77 1 0.502943 0.362107 0.330242
78 1 0.500091 0.330211 0.577886
81 1 0.472343 0.361154 0.381662
82 1 0.451051 0.320508 0.631547
125 1 0.502348 0.381573 0.392044
126 1 0.532943 0.420552 0.647978
161 1 0.499053 0.366545 0.330596
162 1 0.44014 0.414275 0.5697
5 2 0.586472 0.358491 0.367178
6 2 0.609489 0.359628 0.60653
13 2 0.665871 0.418581 0.425302
14 2 0.699825 0.403095 0.664527
45 2 0.681798 0.317881 0.337809
46 2 0.648963 0.28809 0.526315
85 1 0.733463 0.355618 0.404601
86 1 0.704063 0.334709 0.596498
117 1 0.563416 0.413345 0.445846
118 1 0.594987 0.351959 0.70032
133 1 0.621442 0.352123 0.276279
134 1 0.566726 0.32589 0.527446
149 1 0.661465 0.322841 0.433793
150 1 0.599187 0.348457 0.700528
165 1 0.730422 0.39445 0.360433
166 1 0.685641 0.40695 0.568899
189 1 0.639626 0.388059 0.292017
190 1 0.658187 0.408531 0.537064
37 2 0.727109 0.359081 0.499299
38 2 0.673228 0.298815 0.683825
67 1 0.329073 0.515919 0.325494
68 1 0.262362 0.49276 0.505953
153 1 0.25346 0.4713 0.478907
154 1 0.264884 0.493989 0.732513
17 2 0.350352 0.468628 0.492819
18 2 0.354704 0.48605 0.712703
43 2 0.42533 0.541762 0.301278
44 2 0.39434 0.5485 0.550891
59 2 0.290451 0.526454 0.415535
60 2 0.281953 0.538619 0.656114
97 1 0.391264 0.46229 0.347373
98 1 0.39157 0.45832 0.585123
105 1 0.346758 0.458 0.389755
106 1 0.317979 0.452717 0.628339
139 1 0.344599 0.506582 0.339207
140 1 0.315603 0.496024 0.578486
179 1 0.40265 0.517458 0.407807
180 1 0.422786 0.535808 0.665706
49 2 0.491627 0.461536 0.34748
50 2 0.485524 0.497371 0.59845
63 2 0.533092 0.532871 0.42704
64 2 0.532897 0.534034 0.689122
71 1 0.514242 0.505231 0.267099
72 1 0.543812 0.546732 0.538481
91 1 0.432389 0.525975 0.453867
92 1 0.438646 0.521061 0.680147
157 1 0.52882 0.437681 0.445421
158 1 0.510943 0.444879 0.715395
169 1 0.472618 0.467682 0.254229
170 1 0.457989 0.481118 0.509745
21 2 0.608627 0.480415 0.494634
22 2 0.606014 0.446671 0.708868
47 2 0.639213 0.53588 0.300958
48 2 0.657856 0.559632 0.539449
95 1 0.673353 0.532785 0.440386
96 1 0.688625 0.495358 0.69322
101 1 0.627316 0.44258 0.327165
102 1 0.634819 0.448773 0.580018
109 1 0.574285 0.448839 0.406898
110 1 0.541645 0.429742 0.646651
143 1 0.548964 0.543713 0.331192
144 1 0.558842 0.545684 0.55643
173 1 0.717162 0.501173 0.270537
174 1 0.705892 0.459061 0.508966
183 1 0.651407 0.529678 0.41942
184 1 0.649061 0.51898 0.661392
53 2 0.7149 0.487076 0.359496
54 2 0.717925 0.48672 0.600364
75 1 0.271001 0.612212 0.360106
76 1 0.302663 0.561434 0.56777
123 1 0.274563 0.629092 0.373561
124 1 0.26333 0.62705 0.625612
155 1 0.278997 0.720276 0.484039
156 1 0.226816 0.702147 0.660195
3 2 0.360985 0.596023 0.371498
4 2 0.363719 0.614201 0.62839
11 2 0.428581 0.672569 0.422748
12 2 0.403812 0.70974 0.675898
27 2 0.323608 0.686728 0.329898
28 2 0.300034 0.649569 0.537712
99 1 0.407673 0.727417 0.351231
100 1 0.394195 0.691529 0.580938
107 1 0.352629 0.72674 0.407019
108 1 0.335351 0.707737 0.609537
115 1 0.329651 0.664036 0.442053
116 1 0.341637 0.597461 0.717161
131 1 0.359153 0.614474 0.278653
132 1 0.310401 0.561835 0.503938
147 1 0.385121 0.570202 0.45731
148 1 0.347356 0.59122 0.717042
187 1 0.395871 0.63714 0.292922
188 1 0.40923 0.653822 0.550477
31 2 0.541474 0.634162 0.290569
32 2 0.562181 0.65565 0.536596
35 2 0.475891 0.60014 0.494579
36 2 0.446874 0.610041 0.71431
79 1 0.524073 0.556583 0.33265
80 1 0.536296 0.572989 0.565318
83 1 0.452868 0.581218 0.397976
84 1 0.424568 0.545773 0.653464
127 1 0.533866 0.656381 0.429315
128 1 0.520615 0.641479 0.659988
159 1 0.5336 0.666421 0.439197
160 1 0.497745 0.690518 0.694153
163 1 0.446132 0.637483 0.326727
164 1 0.416741 0.65241 0.554666
171 1 0.493305 0.706297 0.266741
172 1 0.467637 0.700389 0.507898
7 2 0.610423 0.612559 0.380959
8 2 0.603424 0.598169 0.627161
15 2 0.701811 0.68465 0.375892
16 2 0.681625 0.678331 0.635637
87 1 0.706278 0.586952 0.370975
88 1 0.707003 0.581928 0.621274
103 1 0.608207 0.704077 0.342922
104 1 0.661919 0.665358 0.538534
111 1 0.606065 0.709116 0.358961
112 1 0.582967 0.699876 0.621179
119 1 0.541902 0.655523 0.436563
120 1 0.53888 0.606654 0.747552
135 1 0.569994 0.559603 0.248215
136 1 0.558287 0.562917 0.531543
151 1 0.651377 0.548955 0.436686
152 1 0.592682 0.584359 0.739592
167 1 0.685744 0.620615 0.310328
168 1 0.66767 0.659794 0.538444
175 1 0.706599 0.707423 0.199011
176 1 0.721961 0.716681 0.462781
191 1 0.632179 0.627764 0.278955
192 1 0.662306 0.660104 0.535253
39 2 0.708354 0.61756 0.4627
40 2 0.6806 0.591477 0.710338
19 2 0.369068 0.724664 0.501566
20 2 0.299907 0.676045 0.69706
51 2 0.506441 0.710213 0.357061
52 2 0.482468 0.707075 0.602033
23 2 0.622474 0.701969 0.456017
24 2 0.59251 0.673167 0.711111
55 2 0.67349 0.708728 0.277149
56 2 0.722885 0.732458 0.553855
ITEM: TIMESTEP
315
ITEM: NUMBER OF ATOMS
192
ITEM: BOX BOUNDS pp pp pp
-7.2437509999999996e+00 1.9956250000000001e+01
-7.2437509999999996e+00 1.9956250000000001e+01
-7.2437509999999996e+00 1.9956250000000001e+01
ITEM: ATOMS id type xs ys zs
65 1 0.357584 0.355787 0.277585
66 1 0.315794 0.318902 0.525301
137 1 0.363692 0.265919 0.363108
138 1 0.36072 0.266728 0.617568
177 1 0.386529 0.268624 0.382448
178 1 0.384082 0.274607 0.63047
69 1 0.522472 0.328809 0.30181
70 1 0.491108 0.249425 0.487082
89 1 0.476388 0.247689 0.47753
90 1 0.501916 0.259617 0.727076
93 1 0.736639 0.267332 0.506048
94 1 0.654612 0.217659 0.664974
141 1 0.611165 0.27116 0.381923
142 1 0.553663 0.308275 0.549048
181 1 0.611169 0.271049 0.381458
182 1 0.628022 0.257874 0.615123
73 1 0.270072 0.361918 0.366528
74 1 0.264473 0.353111 0.623422
121 1 0.272588 0.377261 0.38101
122 1 0.27367 0.379531 0.637464
1 2 0.36484 0.360625 0.372298
2 2 0.359665 0.362242 0.603879
9 2 0.430574 0.42971 0.434049
10 2 0.431989 0.421054 0.664605
25 2 0.30701 0.426704 0.308174
26 2 0.276348 0.406762 0.545535
41 2 0.431108 0.304929 0.308
42 2 0.412211 0.286817 0.53913
57 2 0.305786 0.303198 0.433229
58 2 0.318533 0.3109 0.68664
113 1 0.352726 0.376145 0.476398
114 1 0.357061 0.391541 0.713591
129 1 0.357902 0.356265 0.278107
130 1 0.327428 0.329205 0.518814
145 1 0.375788 0.354327 0.476544
146 1 0.39339 0.355919 0.720901
185 1 0.38248 0.381323 0.282391
186 1 0.409932 0.384091 0.518318
29 2 0.551733 0.413841 0.269761
30 2 0.534197 0.413232 0.544886
33 2 0.487886 0.338942 0.477219
34 2 0.494502 0.348677 0.71457
61 2 0.513189 0.274003 0.392084
62 2 0.541654 0.280239 0.646999
77 1 0.502943 0.362107 0.330242
78 1 0.500091 0.330211 0.577886
81 1 0.472343 0.361154 0.381662
82 1 0.451051 0.320508 0.631547
125 1 0.502348 0.381573 0.392044
126 1 0.532943 0.420552 0.647978
161 1 0.499053 0.366545 0.330596
162 1 0.44014 0.414275 0.5697
5 2 0.586472 0.358491 0.367178
6 2 0.609489 0.359628 0.60653
13 2 0.665871 0.418581 0.425302
14 2 0.699825 0.403095 0.664527
45 2 0.681798 0.317881 0.337809
46 2 0.648963 0.28809 0.526315
85 1 0.733463 0.355618 0.404601
86 1 0.704063 0.334709 0.596498
117 1 0.563416 0.413345 0.445846
118 1 0.594987 0.351959 0.70032
133 1 0.621442 0.352123 0.276279
134 1 0.566726 0.32589 0.527446
149 1 0.661465 0.322841 0.433793
150 1 0.599187 0.348457 0.700528
165 1 0.730422 0.39445 0.360433
166 1 0.685641 0.40695 0.568899
189 1 0.639626 0.388059 0.292017
190 1 0.658187 0.408531 0.537064
37 2 0.727109 0.359081 0.499299
38 2 0.673228 0.298815 0.683825
67 1 0.329073 0.515919 0.325494
68 1 0.262362 0.49276 0.505953
153 1 0.25346 0.4713 0.478907
154 1 0.264884 0.493989 0.732513
17 2 0.350352 0.468628 0.492819
18 2 0.354704 0.48605 0.712703
43 2 0.42533 0.541762 0.301278
44 2 0.39434 0.5485 0.550891
59 2 0.290451 0.526454 0.415535
60 2 0.281953 0.538619 0.656114
97 1 0.391264 0.46229 0.347373
98 1 0.39157 0.45832 0.585123
105 1 0.346758 0.458 0.389755
106 1 0.317979 0.452717 0.628339
139 1 0.344599 0.506582 0.339207
140 1 0.315603 0.496024 0.578486
179 1 0.40265 0.517458 0.407807
180 1 0.422786 0.535808 0.665706
49 2 0.491627 0.461536 0.34748
50 2 0.485524 0.497371 0.59845
63 2 0.533092 0.532871 0.42704
64 2 0.532897 0.534034 0.689122
71 1 0.514242 0.505231 0.267099
72 1 0.543812 0.546732 0.538481
91 1 0.432389 0.525975 0.453867
92 1 0.438646 0.521061 0.680147
157 1 0.52882 0.437681 0.445421
158 1 0.510943 0.444879 0.715395
169 1 0.472618 0.467682 0.254229
170 1 0.457989 0.481118 0.509745
21 2 0.608627 0.480415 0.494634
22 2 0.606014 0.446671 0.708868
47 2 0.639213 0.53588 0.300958
48 2 0.657856 0.559632 0.539449
95 1 0.673353 0.532785 0.440386
96 1 0.688625 0.495358 0.69322
101 1 0.627316 0.44258 0.327165
102 1 0.634819 0.448773 0.580018
109 1 0.574285 0.448839 0.406898
110 1 0.541645 0.429742 0.646651
143 1 0.548964 0.543713 0.331192
144 1 0.558842 0.545684 0.55643
173 1 0.717162 0.501173 0.270537
174 1 0.705892 0.459061 0.508966
183 1 0.651407 0.529678 0.41942
184 1 0.649061 0.51898 0.661392
53 2 0.7149 0.487076 0.359496
54 2 0.717925 0.48672 0.600364
75 1 0.271001 0.612212 0.360106
76 1 0.302663 0.561434 0.56777
123 1 0.274563 0.629092 0.373561
124 1 0.26333 0.62705 0.625612
155 1 0.278997 0.720276 0.484039
156 1 0.226816 0.702147 0.660195
3 2 0.360985 0.596023 0.371498
4 2 0.363719 0.614201 0.62839