LAMMPS data file. CGCMM style. atom_style full generated by VMD/TopoTools v1.5 on Thu Dec 18 14:06:03 MSK 2025
 250 atoms
 0 bonds
 0 angles
 0 dihedrals
 0 impropers
 2 atom types
 0 bond types
 0 angle types
 0 dihedral types
 0 improper types
 0.757500 13.057500  xlo xhi
 0.757500 13.057500  ylo yhi
 0.757500 13.057500  zlo zhi

# Pair Coeffs
#
# 1  Co
# 2  Ta

 Masses

 1 58.933201 # Co
 2 180.947906 # Ta

 Atoms

1 1 1 0.000000 0.000000 0.000000 0.000000 # Co 
2 1 1 0.000000 0.000000 0.000000 3.070000 # Co 
3 1 1 0.000000 0.000000 0.000000 6.140000 # Co 
4 1 1 0.000000 0.000000 0.000000 9.210000 # Co 
5 1 1 0.000000 0.000000 0.000000 12.280000 # Co 
6 1 1 0.000000 0.000000 3.070000 0.000000 # Co 
7 1 1 0.000000 0.000000 3.070000 3.070000 # Co 
8 1 1 0.000000 0.000000 3.070000 6.140000 # Co 
9 1 1 0.000000 0.000000 3.070000 9.210000 # Co 
10 1 1 0.000000 0.000000 3.070000 12.280000 # Co 
11 1 1 0.000000 0.000000 6.140000 0.000000 # Co 
12 1 1 0.000000 0.000000 6.140000 3.070000 # Co 
13 1 1 0.000000 0.000000 6.140000 6.140000 # Co 
14 1 1 0.000000 0.000000 6.140000 9.210000 # Co 
15 1 1 0.000000 0.000000 6.140000 12.280000 # Co 
16 1 1 0.000000 0.000000 9.210000 0.000000 # Co 
17 1 1 0.000000 0.000000 9.210000 3.070000 # Co 
18 1 1 0.000000 0.000000 9.210000 6.140000 # Co 
19 1 1 0.000000 0.000000 9.210000 9.210000 # Co 
20 1 1 0.000000 0.000000 9.210000 12.280000 # Co 
21 1 1 0.000000 0.000000 12.280000 0.000000 # Co 
22 1 1 0.000000 0.000000 12.280000 3.070000 # Co 
23 1 1 0.000000 0.000000 12.280000 6.140000 # Co 
24 1 1 0.000000 0.000000 12.280000 9.210000 # Co 
25 1 1 0.000000 0.000000 12.280000 12.280000 # Co 
26 1 1 0.000000 3.070000 0.000000 0.000000 # Co 
27 1 1 0.000000 3.070000 0.000000 3.070000 # Co 
28 1 1 0.000000 3.070000 0.000000 6.140000 # Co 
29 1 1 0.000000 3.070000 0.000000 9.210000 # Co 
30 1 1 0.000000 3.070000 0.000000 12.280000 # Co 
31 1 1 0.000000 3.070000 3.070000 0.000000 # Co 
32 1 1 0.000000 3.070000 3.070000 3.070000 # Co 
33 1 1 0.000000 3.070000 3.070000 6.140000 # Co 
34 1 1 0.000000 3.070000 3.070000 9.210000 # Co 
35 1 1 0.000000 3.070000 3.070000 12.280000 # Co 
36 1 1 0.000000 3.070000 6.140000 0.000000 # Co 
37 1 1 0.000000 3.070000 6.140000 3.070000 # Co 
38 1 1 0.000000 3.070000 6.140000 6.140000 # Co 
39 1 1 0.000000 3.070000 6.140000 9.210000 # Co 
40 1 1 0.000000 3.070000 6.140000 12.280000 # Co 
41 1 1 0.000000 3.070000 9.210000 0.000000 # Co 
42 1 1 0.000000 3.070000 9.210000 3.070000 # Co 
43 1 1 0.000000 3.070000 9.210000 6.140000 # Co 
44 1 1 0.000000 3.070000 9.210000 9.210000 # Co 
45 1 1 0.000000 3.070000 9.210000 12.280000 # Co 
46 1 1 0.000000 3.070000 12.280000 0.000000 # Co 
47 1 1 0.000000 3.070000 12.280000 3.070000 # Co 
48 1 1 0.000000 3.070000 12.280000 6.140000 # Co 
49 1 1 0.000000 3.070000 12.280000 9.210000 # Co 
50 1 1 0.000000 3.070000 12.280000 12.280000 # Co 
51 1 1 0.000000 6.140000 0.000000 0.000000 # Co 
52 1 1 0.000000 6.140000 0.000000 3.070000 # Co 
53 1 1 0.000000 6.140000 0.000000 6.140000 # Co 
54 1 1 0.000000 6.140000 0.000000 9.210000 # Co 
55 1 1 0.000000 6.140000 0.000000 12.280000 # Co 
56 1 1 0.000000 6.140000 3.070000 0.000000 # Co 
57 1 1 0.000000 6.140000 3.070000 3.070000 # Co 
58 1 1 0.000000 6.140000 3.070000 6.140000 # Co 
59 1 1 0.000000 6.140000 3.070000 9.210000 # Co 
60 1 1 0.000000 6.140000 3.070000 12.280000 # Co 
61 1 1 0.000000 6.140000 6.140000 0.000000 # Co 
62 1 1 0.000000 6.140000 6.140000 3.070000 # Co 
63 1 1 0.000000 6.140000 6.140000 6.140000 # Co 
64 1 1 0.000000 6.140000 6.140000 9.210000 # Co 
65 1 1 0.000000 6.140000 6.140000 12.280000 # Co 
66 1 1 0.000000 6.140000 9.210000 0.000000 # Co 
67 1 1 0.000000 6.140000 9.210000 3.070000 # Co 
68 1 1 0.000000 6.140000 9.210000 6.140000 # Co 
69 1 1 0.000000 6.140000 9.210000 9.210000 # Co 
70 1 1 0.000000 6.140000 9.210000 12.280000 # Co 
71 1 1 0.000000 6.140000 12.280000 0.000000 # Co 
72 1 1 0.000000 6.140000 12.280000 3.070000 # Co 
73 1 1 0.000000 6.140000 12.280000 6.140000 # Co 
74 1 1 0.000000 6.140000 12.280000 9.210000 # Co 
75 1 1 0.000000 6.140000 12.280000 12.280000 # Co 
76 1 1 0.000000 9.210000 0.000000 0.000000 # Co 
77 1 1 0.000000 9.210000 0.000000 3.070000 # Co 
78 1 1 0.000000 9.210000 0.000000 6.140000 # Co 
79 1 1 0.000000 9.210000 0.000000 9.210000 # Co 
80 1 1 0.000000 9.210000 0.000000 12.280000 # Co 
81 1 1 0.000000 9.210000 3.070000 0.000000 # Co 
82 1 1 0.000000 9.210000 3.070000 3.070000 # Co 
83 1 1 0.000000 9.210000 3.070000 6.140000 # Co 
84 1 1 0.000000 9.210000 3.070000 9.210000 # Co 
85 1 1 0.000000 9.210000 3.070000 12.280000 # Co 
86 1 1 0.000000 9.210000 6.140000 0.000000 # Co 
87 1 1 0.000000 9.210000 6.140000 3.070000 # Co 
88 1 1 0.000000 9.210000 6.140000 6.140000 # Co 
89 1 1 0.000000 9.210000 6.140000 9.210000 # Co 
90 1 1 0.000000 9.210000 6.140000 12.280000 # Co 
91 1 1 0.000000 9.210000 9.210000 0.000000 # Co 
92 1 1 0.000000 9.210000 9.210000 3.070000 # Co 
93 1 1 0.000000 9.210000 9.210000 6.140000 # Co 
94 1 1 0.000000 9.210000 9.210000 9.210000 # Co 
95 1 1 0.000000 9.210000 9.210000 12.280000 # Co 
96 1 1 0.000000 9.210000 12.280000 0.000000 # Co 
97 1 1 0.000000 9.210000 12.280000 3.070000 # Co 
98 1 1 0.000000 9.210000 12.280000 6.140000 # Co 
99 1 1 0.000000 9.210000 12.280000 9.210000 # Co 
100 1 1 0.000000 9.210000 12.280000 12.280000 # Co 
101 1 1 0.000000 12.280000 0.000000 0.000000 # Co 
102 1 1 0.000000 12.280000 0.000000 3.070000 # Co 
103 1 1 0.000000 12.280000 0.000000 6.140000 # Co 
104 1 1 0.000000 12.280000 0.000000 9.210000 # Co 
105 1 1 0.000000 12.280000 0.000000 12.280000 # Co 
106 1 1 0.000000 12.280000 3.070000 0.000000 # Co 
107 1 1 0.000000 12.280000 3.070000 3.070000 # Co 
108 1 1 0.000000 12.280000 3.070000 6.140000 # Co 
109 1 1 0.000000 12.280000 3.070000 9.210000 # Co 
110 1 1 0.000000 12.280000 3.070000 12.280000 # Co 
111 1 1 0.000000 12.280000 6.140000 0.000000 # Co 
112 1 1 0.000000 12.280000 6.140000 3.070000 # Co 
113 1 1 0.000000 12.280000 6.140000 6.140000 # Co 
114 1 1 0.000000 12.280000 6.140000 9.210000 # Co 
115 1 1 0.000000 12.280000 6.140000 12.280000 # Co 
116 1 1 0.000000 12.280000 9.210000 0.000000 # Co 
117 1 1 0.000000 12.280000 9.210000 3.070000 # Co 
118 1 1 0.000000 12.280000 9.210000 6.140000 # Co 
119 1 1 0.000000 12.280000 9.210000 9.210000 # Co 
120 1 1 0.000000 12.280000 9.210000 12.280000 # Co 
121 1 1 0.000000 12.280000 12.280000 0.000000 # Co 
122 1 1 0.000000 12.280000 12.280000 3.070000 # Co 
123 1 1 0.000000 12.280000 12.280000 6.140000 # Co 
124 1 1 0.000000 12.280000 12.280000 9.210000 # Co 
125 1 1 0.000000 12.280000 12.280000 12.280000 # Co 
126 1 2 0.000000 1.535000 1.535000 1.535000 # Ta 
127 1 2 0.000000 1.535000 1.535000 4.605000 # Ta 
128 1 2 0.000000 1.535000 1.535000 7.675000 # Ta 
129 1 2 0.000000 1.535000 1.535000 10.745000 # Ta 
130 1 2 0.000000 1.535000 1.535000 13.815000 # Ta 
131 1 2 0.000000 1.535000 4.605000 1.535000 # Ta 
132 1 2 0.000000 1.535000 4.605000 4.605000 # Ta 
133 1 2 0.000000 1.535000 4.605000 7.675000 # Ta 
134 1 2 0.000000 1.535000 4.605000 10.745000 # Ta 
135 1 2 0.000000 1.535000 4.605000 13.815000 # Ta 
136 1 2 0.000000 1.535000 7.675000 1.535000 # Ta 
137 1 2 0.000000 1.535000 7.675000 4.605000 # Ta 
138 1 2 0.000000 1.535000 7.675000 7.675000 # Ta 
139 1 2 0.000000 1.535000 7.675000 10.745000 # Ta 
140 1 2 0.000000 1.535000 7.675000 13.815000 # Ta 
141 1 2 0.000000 1.535000 10.745000 1.535000 # Ta 
142 1 2 0.000000 1.535000 10.745000 4.605000 # Ta 
143 1 2 0.000000 1.535000 10.745000 7.675000 # Ta 
144 1 2 0.000000 1.535000 10.745000 10.745000 # Ta 
145 1 2 0.000000 1.535000 10.745000 13.815000 # Ta 
146 1 2 0.000000 1.535000 13.815000 1.535000 # Ta 
147 1 2 0.000000 1.535000 13.815000 4.605000 # Ta 
148 1 2 0.000000 1.535000 13.815000 7.675000 # Ta 
149 1 2 0.000000 1.535000 13.815000 10.745000 # Ta 
150 1 2 0.000000 1.535000 13.815000 13.815000 # Ta 
151 1 2 0.000000 4.605000 1.535000 1.535000 # Ta 
152 1 2 0.000000 4.605000 1.535000 4.605000 # Ta 
153 1 2 0.000000 4.605000 1.535000 7.675000 # Ta 
154 1 2 0.000000 4.605000 1.535000 10.745000 # Ta 
155 1 2 0.000000 4.605000 1.535000 13.815000 # Ta 
156 1 2 0.000000 4.605000 4.605000 1.535000 # Ta 
157 1 2 0.000000 4.605000 4.605000 4.605000 # Ta 
158 1 2 0.000000 4.605000 4.605000 7.675000 # Ta 
159 1 2 0.000000 4.605000 4.605000 10.745000 # Ta 
160 1 2 0.000000 4.605000 4.605000 13.815000 # Ta 
161 1 2 0.000000 4.605000 7.675000 1.535000 # Ta 
162 1 2 0.000000 4.605000 7.675000 4.605000 # Ta 
163 1 2 0.000000 4.605000 7.675000 7.675000 # Ta 
164 1 2 0.000000 4.605000 7.675000 10.745000 # Ta 
165 1 2 0.000000 4.605000 7.675000 13.815000 # Ta 
166 1 2 0.000000 4.605000 10.745000 1.535000 # Ta 
167 1 2 0.000000 4.605000 10.745000 4.605000 # Ta 
168 1 2 0.000000 4.605000 10.745000 7.675000 # Ta 
169 1 2 0.000000 4.605000 10.745000 10.745000 # Ta 
170 1 2 0.000000 4.605000 10.745000 13.815000 # Ta 
171 1 2 0.000000 4.605000 13.815000 1.535000 # Ta 
172 1 2 0.000000 4.605000 13.815000 4.605000 # Ta 
173 1 2 0.000000 4.605000 13.815000 7.675000 # Ta 
174 1 2 0.000000 4.605000 13.815000 10.745000 # Ta 
175 1 2 0.000000 4.605000 13.815000 13.815000 # Ta 
176 1 2 0.000000 7.675000 1.535000 1.535000 # Ta 
177 1 2 0.000000 7.675000 1.535000 4.605000 # Ta 
178 1 2 0.000000 7.675000 1.535000 7.675000 # Ta 
179 1 2 0.000000 7.675000 1.535000 10.745000 # Ta 
180 1 2 0.000000 7.675000 1.535000 13.815000 # Ta 
181 1 2 0.000000 7.675000 4.605000 1.535000 # Ta 
182 1 2 0.000000 7.675000 4.605000 4.605000 # Ta 
183 1 2 0.000000 7.675000 4.605000 7.675000 # Ta 
184 1 2 0.000000 7.675000 4.605000 10.745000 # Ta 
185 1 2 0.000000 7.675000 4.605000 13.815000 # Ta 
186 1 2 0.000000 7.675000 7.675000 1.535000 # Ta 
187 1 2 0.000000 7.675000 7.675000 4.605000 # Ta 
188 1 2 0.000000 7.675000 7.675000 7.675000 # Ta 
189 1 2 0.000000 7.675000 7.675000 10.745000 # Ta 
190 1 2 0.000000 7.675000 7.675000 13.815000 # Ta 
191 1 2 0.000000 7.675000 10.745000 1.535000 # Ta 
192 1 2 0.000000 7.675000 10.745000 4.605000 # Ta 
193 1 2 0.000000 7.675000 10.745000 7.675000 # Ta 
194 1 2 0.000000 7.675000 10.745000 10.745000 # Ta 
195 1 2 0.000000 7.675000 10.745000 13.815000 # Ta 
196 1 2 0.000000 7.675000 13.815000 1.535000 # Ta 
197 1 2 0.000000 7.675000 13.815000 4.605000 # Ta 
198 1 2 0.000000 7.675000 13.815000 7.675000 # Ta 
199 1 2 0.000000 7.675000 13.815000 10.745000 # Ta 
200 1 2 0.000000 7.675000 13.815000 13.815000 # Ta 
201 1 2 0.000000 10.745000 1.535000 1.535000 # Ta 
202 1 2 0.000000 10.745000 1.535000 4.605000 # Ta 
203 1 2 0.000000 10.745000 1.535000 7.675000 # Ta 
204 1 2 0.000000 10.745000 1.535000 10.745000 # Ta 
205 1 2 0.000000 10.745000 1.535000 13.815000 # Ta 
206 1 2 0.000000 10.745000 4.605000 1.535000 # Ta 
207 1 2 0.000000 10.745000 4.605000 4.605000 # Ta 
208 1 2 0.000000 10.745000 4.605000 7.675000 # Ta 
209 1 2 0.000000 10.745000 4.605000 10.745000 # Ta 
210 1 2 0.000000 10.745000 4.605000 13.815000 # Ta 
211 1 2 0.000000 10.745000 7.675000 1.535000 # Ta 
212 1 2 0.000000 10.745000 7.675000 4.605000 # Ta 
213 1 2 0.000000 10.745000 7.675000 7.675000 # Ta 
214 1 2 0.000000 10.745000 7.675000 10.745000 # Ta 
215 1 2 0.000000 10.745000 7.675000 13.815000 # Ta 
216 1 2 0.000000 10.745000 10.745000 1.535000 # Ta 
217 1 2 0.000000 10.745000 10.745000 4.605000 # Ta 
218 1 2 0.000000 10.745000 10.745000 7.675000 # Ta 
219 1 2 0.000000 10.745000 10.745000 10.745000 # Ta 
220 1 2 0.000000 10.745000 10.745000 13.815000 # Ta 
221 1 2 0.000000 10.745000 13.815000 1.535000 # Ta 
222 1 2 0.000000 10.745000 13.815000 4.605000 # Ta 
223 1 2 0.000000 10.745000 13.815000 7.675000 # Ta 
224 1 2 0.000000 10.745000 13.815000 10.745000 # Ta 
225 1 2 0.000000 10.745000 13.815000 13.815000 # Ta 
226 1 2 0.000000 13.815000 1.535000 1.535000 # Ta 
227 1 2 0.000000 13.815000 1.535000 4.605000 # Ta 
228 1 2 0.000000 13.815000 1.535000 7.675000 # Ta 
229 1 2 0.000000 13.815000 1.535000 10.745000 # Ta 
230 1 2 0.000000 13.815000 1.535000 13.815000 # Ta 
231 1 2 0.000000 13.815000 4.605000 1.535000 # Ta 
232 1 2 0.000000 13.815000 4.605000 4.605000 # Ta 
233 1 2 0.000000 13.815000 4.605000 7.675000 # Ta 
234 1 2 0.000000 13.815000 4.605000 10.745000 # Ta 
235 1 2 0.000000 13.815000 4.605000 13.815000 # Ta 
236 1 2 0.000000 13.815000 7.675000 1.535000 # Ta 
237 1 2 0.000000 13.815000 7.675000 4.605000 # Ta 
238 1 2 0.000000 13.815000 7.675000 7.675000 # Ta 
239 1 2 0.000000 13.815000 7.675000 10.745000 # Ta 
240 1 2 0.000000 13.815000 7.675000 13.815000 # Ta 
241 1 2 0.000000 13.815000 10.745000 1.535000 # Ta 
242 1 2 0.000000 13.815000 10.745000 4.605000 # Ta 
243 1 2 0.000000 13.815000 10.745000 7.675000 # Ta 
244 1 2 0.000000 13.815000 10.745000 10.745000 # Ta 
245 1 2 0.000000 13.815000 10.745000 13.815000 # Ta 
246 1 2 0.000000 13.815000 13.815000 1.535000 # Ta 
247 1 2 0.000000 13.815000 13.815000 4.605000 # Ta 
248 1 2 0.000000 13.815000 13.815000 7.675000 # Ta 
249 1 2 0.000000 13.815000 13.815000 10.745000 # Ta 
250 1 2 0.000000 13.815000 13.815000 13.815000 # Ta 

