ITEM: TIMESTEP
0
ITEM: NUMBER OF ATOMS
250
ITEM: BOX BOUNDS pp pp pp
7.5749999999999995e-01 1.3057499999999999e+01
7.5749999999999995e-01 1.3057499999999999e+01
7.5749999999999995e-01 1.3057499999999999e+01
ITEM: ATOMS id type xs ys zs
32 1 0.188008 0.188008 0.188008
126 2 0.0632114 0.0632114 0.0632114
127 2 0.0632114 0.0632114 0.312805
130 2 0.0632114 0.0632114 0.0615854
131 2 0.0632114 0.312805 0.0632114
132 2 0.0632114 0.312805 0.312805
135 2 0.0632114 0.312805 0.0615854
146 2 0.0632114 0.0615854 0.0632114
147 2 0.0632114 0.0615854 0.312805
150 2 0.0632114 0.0615854 0.0615854
151 2 0.312805 0.0632114 0.0632114
152 2 0.312805 0.0632114 0.312805
155 2 0.312805 0.0632114 0.0615854
156 2 0.312805 0.312805 0.0632114
157 2 0.312805 0.312805 0.312805
160 2 0.312805 0.312805 0.0615854
171 2 0.312805 0.0615854 0.0632114
172 2 0.312805 0.0615854 0.312805
175 2 0.312805 0.0615854 0.0615854
226 2 0.0615854 0.0632114 0.0632114
227 2 0.0615854 0.0632114 0.312805
230 2 0.0615854 0.0632114 0.0615854
231 2 0.0615854 0.312805 0.0632114
232 2 0.0615854 0.312805 0.312805
235 2 0.0615854 0.312805 0.0615854
246 2 0.0615854 0.0615854 0.0632114
247 2 0.0615854 0.0615854 0.312805
250 2 0.0615854 0.0615854 0.0615854
57 1 0.437602 0.188008 0.188008
176 2 0.562398 0.0632114 0.0632114
177 2 0.562398 0.0632114 0.312805
180 2 0.562398 0.0632114 0.0615854
181 2 0.562398 0.312805 0.0632114
182 2 0.562398 0.312805 0.312805
185 2 0.562398 0.312805 0.0615854
196 2 0.562398 0.0615854 0.0632114
197 2 0.562398 0.0615854 0.312805
200 2 0.562398 0.0615854 0.0615854
7 1 0.938415 0.188008 0.188008
82 1 0.687195 0.188008 0.188008
107 1 0.936789 0.188008 0.188008
201 2 0.811992 0.0632114 0.0632114
202 2 0.811992 0.0632114 0.312805
205 2 0.811992 0.0632114 0.0615854
206 2 0.811992 0.312805 0.0632114
207 2 0.811992 0.312805 0.312805
210 2 0.811992 0.312805 0.0615854
221 2 0.811992 0.0615854 0.0632114
222 2 0.811992 0.0615854 0.312805
225 2 0.811992 0.0615854 0.0615854
37 1 0.188008 0.437602 0.188008
136 2 0.0632114 0.562398 0.0632114
137 2 0.0632114 0.562398 0.312805
140 2 0.0632114 0.562398 0.0615854
161 2 0.312805 0.562398 0.0632114
162 2 0.312805 0.562398 0.312805
165 2 0.312805 0.562398 0.0615854
236 2 0.0615854 0.562398 0.0632114
237 2 0.0615854 0.562398 0.312805
240 2 0.0615854 0.562398 0.0615854
62 1 0.437602 0.437602 0.188008
186 2 0.562398 0.562398 0.0632114
187 2 0.562398 0.562398 0.312805
190 2 0.562398 0.562398 0.0615854
12 1 0.938415 0.437602 0.188008
87 1 0.687195 0.437602 0.188008
112 1 0.936789 0.437602 0.188008
211 2 0.811992 0.562398 0.0632114
212 2 0.811992 0.562398 0.312805
215 2 0.811992 0.562398 0.0615854
27 1 0.188008 0.938415 0.188008
42 1 0.188008 0.687195 0.188008
47 1 0.188008 0.936789 0.188008
141 2 0.0632114 0.811992 0.0632114
142 2 0.0632114 0.811992 0.312805
145 2 0.0632114 0.811992 0.0615854
166 2 0.312805 0.811992 0.0632114
167 2 0.312805 0.811992 0.312805
170 2 0.312805 0.811992 0.0615854
241 2 0.0615854 0.811992 0.0632114
242 2 0.0615854 0.811992 0.312805
245 2 0.0615854 0.811992 0.0615854
52 1 0.437602 0.938415 0.188008
67 1 0.437602 0.687195 0.188008
72 1 0.437602 0.936789 0.188008
191 2 0.562398 0.811992 0.0632114
192 2 0.562398 0.811992 0.312805
195 2 0.562398 0.811992 0.0615854
2 1 0.938415 0.938415 0.188008
17 1 0.938415 0.687195 0.188008
22 1 0.938415 0.936789 0.188008
77 1 0.687195 0.938415 0.188008
92 1 0.687195 0.687195 0.188008
97 1 0.687195 0.936789 0.188008
102 1 0.936789 0.938415 0.188008
117 1 0.936789 0.687195 0.188008
122 1 0.936789 0.936789 0.188008
216 2 0.811992 0.811992 0.0632114
217 2 0.811992 0.811992 0.312805
220 2 0.811992 0.811992 0.0615854
33 1 0.188008 0.188008 0.437602
128 2 0.0632114 0.0632114 0.562398
133 2 0.0632114 0.312805 0.562398
148 2 0.0632114 0.0615854 0.562398
153 2 0.312805 0.0632114 0.562398
158 2 0.312805 0.312805 0.562398
173 2 0.312805 0.0615854 0.562398
228 2 0.0615854 0.0632114 0.562398
233 2 0.0615854 0.312805 0.562398
248 2 0.0615854 0.0615854 0.562398
58 1 0.437602 0.188008 0.437602
178 2 0.562398 0.0632114 0.562398
183 2 0.562398 0.312805 0.562398
198 2 0.562398 0.0615854 0.562398
8 1 0.938415 0.188008 0.437602
83 1 0.687195 0.188008 0.437602
108 1 0.936789 0.188008 0.437602
203 2 0.811992 0.0632114 0.562398
208 2 0.811992 0.312805 0.562398
223 2 0.811992 0.0615854 0.562398
38 1 0.188008 0.437602 0.437602
138 2 0.0632114 0.562398 0.562398
163 2 0.312805 0.562398 0.562398
238 2 0.0615854 0.562398 0.562398
63 1 0.437602 0.437602 0.437602
188 2 0.562398 0.562398 0.562398
13 1 0.938415 0.437602 0.437602
88 1 0.687195 0.437602 0.437602
113 1 0.936789 0.437602 0.437602
213 2 0.811992 0.562398 0.562398
28 1 0.188008 0.938415 0.437602
43 1 0.188008 0.687195 0.437602
48 1 0.188008 0.936789 0.437602
143 2 0.0632114 0.811992 0.562398
168 2 0.312805 0.811992 0.562398
243 2 0.0615854 0.811992 0.562398
53 1 0.437602 0.938415 0.437602
68 1 0.437602 0.687195 0.437602
73 1 0.437602 0.936789 0.437602
193 2 0.562398 0.811992 0.562398
3 1 0.938415 0.938415 0.437602
18 1 0.938415 0.687195 0.437602
23 1 0.938415 0.936789 0.437602
78 1 0.687195 0.938415 0.437602
93 1 0.687195 0.687195 0.437602
98 1 0.687195 0.936789 0.437602
103 1 0.936789 0.938415 0.437602
118 1 0.936789 0.687195 0.437602
123 1 0.936789 0.936789 0.437602
218 2 0.811992 0.811992 0.562398
31 1 0.188008 0.188008 0.938415
34 1 0.188008 0.188008 0.687195
35 1 0.188008 0.188008 0.936789
129 2 0.0632114 0.0632114 0.811992
134 2 0.0632114 0.312805 0.811992
149 2 0.0632114 0.0615854 0.811992
154 2 0.312805 0.0632114 0.811992
159 2 0.312805 0.312805 0.811992
174 2 0.312805 0.0615854 0.811992
229 2 0.0615854 0.0632114 0.811992
234 2 0.0615854 0.312805 0.811992
249 2 0.0615854 0.0615854 0.811992
56 1 0.437602 0.188008 0.938415
59 1 0.437602 0.188008 0.687195
60 1 0.437602 0.188008 0.936789
179 2 0.562398 0.0632114 0.811992
184 2 0.562398 0.312805 0.811992
199 2 0.562398 0.0615854 0.811992
6 1 0.938415 0.188008 0.938415
9 1 0.938415 0.188008 0.687195
10 1 0.938415 0.188008 0.936789
81 1 0.687195 0.188008 0.938415
84 1 0.687195 0.188008 0.687195
85 1 0.687195 0.188008 0.936789
106 1 0.936789 0.188008 0.938415
109 1 0.936789 0.188008 0.687195
110 1 0.936789 0.188008 0.936789
204 2 0.811992 0.0632114 0.811992
209 2 0.811992 0.312805 0.811992
224 2 0.811992 0.0615854 0.811992
36 1 0.188008 0.437602 0.938415
39 1 0.188008 0.437602 0.687195
40 1 0.188008 0.437602 0.936789
139 2 0.0632114 0.562398 0.811992
164 2 0.312805 0.562398 0.811992
239 2 0.0615854 0.562398 0.811992
61 1 0.437602 0.437602 0.938415
64 1 0.437602 0.437602 0.687195
65 1 0.437602 0.437602 0.936789
189 2 0.562398 0.562398 0.811992
11 1 0.938415 0.437602 0.938415
14 1 0.938415 0.437602 0.687195
15 1 0.938415 0.437602 0.936789
86 1 0.687195 0.437602 0.938415
89 1 0.687195 0.437602 0.687195
90 1 0.687195 0.437602 0.936789
111 1 0.936789 0.437602 0.938415
114 1 0.936789 0.437602 0.687195
115 1 0.936789 0.437602 0.936789
214 2 0.811992 0.562398 0.811992
26 1 0.188008 0.938415 0.938415
29 1 0.188008 0.938415 0.687195
30 1 0.188008 0.938415 0.936789
41 1 0.188008 0.687195 0.938415
44 1 0.188008 0.687195 0.687195
45 1 0.188008 0.687195 0.936789
46 1 0.188008 0.936789 0.938415
49 1 0.188008 0.936789 0.687195
50 1 0.188008 0.936789 0.936789
144 2 0.0632114 0.811992 0.811992
169 2 0.312805 0.811992 0.811992
244 2 0.0615854 0.811992 0.811992
51 1 0.437602 0.938415 0.938415
54 1 0.437602 0.938415 0.687195
55 1 0.437602 0.938415 0.936789
66 1 0.437602 0.687195 0.938415
69 1 0.437602 0.687195 0.687195
70 1 0.437602 0.687195 0.936789
71 1 0.437602 0.936789 0.938415
74 1 0.437602 0.936789 0.687195
75 1 0.437602 0.936789 0.936789
194 2 0.562398 0.811992 0.811992
1 1 0.938415 0.938415 0.938415
4 1 0.938415 0.938415 0.687195
5 1 0.938415 0.938415 0.936789
16 1 0.938415 0.687195 0.938415
19 1 0.938415 0.687195 0.687195
20 1 0.938415 0.687195 0.936789
21 1 0.938415 0.936789 0.938415
24 1 0.938415 0.936789 0.687195
25 1 0.938415 0.936789 0.936789
76 1 0.687195 0.938415 0.938415
79 1 0.687195 0.938415 0.687195
80 1 0.687195 0.938415 0.936789
91 1 0.687195 0.687195 0.938415
94 1 0.687195 0.687195 0.687195
95 1 0.687195 0.687195 0.936789
96 1 0.687195 0.936789 0.938415
99 1 0.687195 0.936789 0.687195
100 1 0.687195 0.936789 0.936789
101 1 0.936789 0.938415 0.938415
104 1 0.936789 0.938415 0.687195
105 1 0.936789 0.938415 0.936789
116 1 0.936789 0.687195 0.938415
119 1 0.936789 0.687195 0.687195
120 1 0.936789 0.687195 0.936789
121 1 0.936789 0.936789 0.938415
124 1 0.936789 0.936789 0.687195
125 1 0.936789 0.936789 0.936789
219 2 0.811992 0.811992 0.811992
ITEM: TIMESTEP
100
ITEM: NUMBER OF ATOMS
250
ITEM: BOX BOUNDS pp pp pp
7.5749999999999995e-01 1.3057499999999999e+01
7.5749999999999995e-01 1.3057499999999999e+01
7.5749999999999995e-01 1.3057499999999999e+01
ITEM: ATOMS id type xs ys zs
32 1 0.20271 0.203903 0.204804
126 2 0.122516 0.122852 0.124118
127 2 0.130096 0.12303 0.322859
130 2 0.13953 0.136599 0.961103
131 2 0.130805 0.322151 0.122932
132 2 0.165537 0.324287 0.324088
135 2 0.127088 0.34156 0.955427
146 2 0.136192 0.960922 0.140119
147 2 0.112476 0.958211 0.336654
150 2 0.2063 0.940532 0.945823
151 2 0.32186 0.132757 0.124786
152 2 0.328851 0.171484 0.324591
155 2 0.335891 0.113631 0.959992
156 2 0.327724 0.330524 0.175805
157 2 0.341498 0.3494 0.355756
160 2 0.349539 0.352564 0.00993771
171 2 0.340634 0.963567 0.130827
172 2 0.352181 0.00870835 0.350646
175 2 0.414867 0.952333 0.968503
226 2 0.961072 0.13885 0.137059
227 2 0.961343 0.129499 0.341593
230 2 0.944983 0.206618 0.941448
231 2 0.964543 0.335113 0.116407
232 2 0.00609679 0.349657 0.353119
235 2 0.965698 0.415087 0.954064
246 2 0.93996 0.944929 0.206711
247 2 0.951733 0.967769 0.415302
250 2 0.995142 0.995291 0.995483
57 1 0.413471 0.204695 0.203985
176 2 0.553071 0.112494 0.115712
177 2 0.543671 0.173096 0.328945
180 2 0.476512 0.178307 0.941282
181 2 0.536843 0.324703 0.19483
182 2 0.535923 0.369566 0.374804
185 2 0.575767 0.34963 1.00382
196 2 0.498901 0.928614 0.184306
197 2 0.570281 0.0126545 0.364084
200 2 0.601252 0.986906 0.982272
7 1 0.983493 0.242498 0.241734
82 1 0.640179 0.220244 0.227931
107 1 0.854447 0.305659 0.290506
201 2 0.763102 0.127657 0.11216
202 2 0.758355 0.185494 0.329949
205 2 0.680512 0.181208 0.930708
206 2 0.753764 0.328951 0.176941
207 2 0.737342 0.393471 0.373417
210 2 0.784917 0.338459 0.977259
221 2 0.710146 0.939328 0.143783
222 2 0.772208 0.977036 0.331023
225 2 0.802755 0.0384168 0.946145
37 1 0.203877 0.413254 0.201096
136 2 0.115652 0.553302 0.11278
137 2 0.197167 0.534812 0.322726
140 2 0.1833 0.498481 0.930312
161 2 0.330219 0.545106 0.169687
162 2 0.378635 0.541287 0.362859
165 2 0.365017 0.570283 0.0105127
236 2 0.941327 0.476665 0.177983
237 2 0.00505223 0.57583 0.349074
240 2 0.982729 0.601636 0.986015
62 1 0.427468 0.435603 0.223608
186 2 0.536607 0.531313 0.193331
187 2 0.596097 0.587508 0.349216
190 2 0.572034 0.569316 0.911346
12 1 0.068449 0.476274 0.247738
87 1 0.65008 0.427642 0.245844
112 1 0.857708 0.473632 0.316121
211 2 0.755487 0.546934 0.208436
212 2 0.79994 0.578379 0.403843
215 2 0.768344 0.550747 0.979346
27 1 0.240615 0.984547 0.244668
42 1 0.228601 0.640252 0.21883
47 1 0.287522 0.855069 0.306128
141 2 0.113194 0.763223 0.126745
142 2 0.175589 0.750526 0.3285
145 2 0.14419 0.710149 0.93908
166 2 0.329934 0.760267 0.185754
167 2 0.371046 0.740627 0.393658
170 2 0.330951 0.772381 0.97738
241 2 0.931505 0.681108 0.180627
242 2 0.974804 0.784563 0.339669
245 2 0.946028 0.803015 0.038101
52 1 0.47027 0.0635479 0.23493
67 1 0.426217 0.645214 0.251455
72 1 0.456939 0.828304 0.297741
191 2 0.551541 0.743909 0.201134
192 2 0.577027 0.803538 0.393028
195 2 0.552839 0.766906 0.976606
2 1 0.878696 0.88576 0.325466
17 1 0.0782255 0.664776 0.225763
22 1 0.0747659 0.864638 0.233409
77 1 0.678914 0.0630125 0.223771
92 1 0.659356 0.651182 0.207882
97 1 0.650069 0.881834 0.276202
102 1 0.853193 0.089742 0.242743
117 1 0.88896 0.669181 0.318907
122 1 0.83447 0.815193 0.187489
216 2 0.738344 0.730026 0.0928084
217 2 0.747437 0.746468 0.296266
220 2 0.754439 0.828521 0.936324
33 1 0.20255 0.202917 0.413354
128 2 0.112132 0.115702 0.552975
133 2 0.175602 0.32853 0.540509
148 2 0.178183 0.940486 0.47711
153 2 0.325018 0.19097 0.535329
158 2 0.369639 0.371488 0.54743
173 2 0.349588 1.00239 0.576184
228 2 0.927611 0.184104 0.49957
233 2 0.0131555 0.362707 0.571275
248 2 0.987154 0.98248 0.60142
58 1 0.433141 0.221076 0.426525
178 2 0.531018 0.19418 0.535456
183 2 0.589705 0.349524 0.593561
198 2 0.569605 0.912159 0.57144
8 1 0.061726 0.235303 0.471184
83 1 0.642856 0.2563 0.425249
108 1 0.827961 0.299062 0.457612
203 2 0.744033 0.201604 0.551272
208 2 0.803049 0.394798 0.576709
223 2 0.767149 0.976904 0.552443
38 1 0.212554 0.426982 0.429508
138 2 0.195789 0.535028 0.52934
163 2 0.350106 0.592896 0.589589
238 2 0.913285 0.571064 0.569246
63 1 0.418396 0.425787 0.429662
188 2 0.506007 0.513119 0.512866
13 1 0.0410063 0.497248 0.47996
88 1 0.62411 0.445051 0.457425
113 1 0.916245 0.42426 0.448189
213 2 0.708519 0.533373 0.542751
28 1 0.24723 0.0670087 0.476242
43 1 0.248521 0.648606 0.426762
48 1 0.316156 0.857933 0.475325
143 2 0.208798 0.754139 0.546149
168 2 0.40338 0.797868 0.578818
243 2 0.979914 0.767837 0.551307
53 1 0.481057 0.0392198 0.499304
68 1 0.462906 0.630244 0.434903
73 1 0.447082 0.916761 0.423285
193 2 0.544289 0.7131 0.530112
3 1 0.886155 0.893449 0.526796
18 1 0.0864995 0.652931 0.472239
23 1 0.0846212 0.805266 0.436931
78 1 0.652562 0.0895737 0.48065
93 1 0.677714 0.676648 0.433477
98 1 0.66944 0.910718 0.447958
103 1 0.809824 0.0842562 0.440715
118 1 0.891699 0.68039 0.467204
123 1 0.804012 0.828344 0.425702
218 2 0.756866 0.748951 0.536503
31 1 0.243307 0.242302 0.98462
34 1 0.219971 0.226049 0.638461
35 1 0.302572 0.289586 0.853878
129 2 0.127101 0.111209 0.762724
134 2 0.18482 0.328696 0.755505
149 2 0.181439 0.929746 0.680891
154 2 0.328003 0.176097 0.752478
159 2 0.392613 0.372309 0.744973
174 2 0.339096 0.975812 0.785424
229 2 0.938707 0.144501 0.710392
234 2 0.976642 0.331717 0.773869
249 2 0.0384933 0.94626 0.802892
56 1 0.475792 0.247966 0.0686534
59 1 0.426841 0.246271 0.649253
60 1 0.475795 0.315528 0.859315
179 2 0.545906 0.208685 0.754507
184 2 0.579761 0.401525 0.799204
199 2 0.550859 0.979692 0.767914
6 1 0.885095 0.325114 0.880579
9 1 0.0624716 0.224442 0.679201
10 1 0.0888813 0.241134 0.852228
81 1 0.664336 0.226458 0.0781135
84 1 0.651213 0.208174 0.658903
85 1 0.671207 0.319982 0.889825
106 1 0.865927 0.234238 0.0775313
109 1 0.882066 0.277621 0.650372
110 1 0.815207 0.18739 0.835139
204 2 0.729796 0.0929919 0.738302
209 2 0.74736 0.296001 0.74728
224 2 0.828478 0.936607 0.754175
36 1 0.235664 0.471634 0.0636005
39 1 0.25392 0.425196 0.641939
40 1 0.298708 0.460011 0.831066
139 2 0.20204 0.549803 0.743134
164 2 0.394566 0.577873 0.80175
239 2 0.977592 0.552852 0.76697
61 1 0.500747 0.482105 0.0388689
64 1 0.444852 0.454343 0.631581
65 1 0.423614 0.446151 0.918391
189 2 0.534313 0.541038 0.713727
11 1 0.894207 0.526744 0.885705
14 1 0.089401 0.480906 0.650575
15 1 0.0855856 0.441414 0.808369
86 1 0.655152 0.471562 0.0854111
89 1 0.677688 0.433536 0.675963
90 1 0.681726 0.467295 0.889961
111 1 0.807684 0.43767 0.0847861
114 1 0.91064 0.448255 0.670134
115 1 0.827989 0.425487 0.805347
214 2 0.750821 0.536625 0.754476
26 1 0.324936 0.879299 0.886214
29 1 0.226036 0.0768775 0.664703
30 1 0.233592 0.0758972 0.86542
41 1 0.224105 0.678976 0.0624291
44 1 0.208504 0.658514 0.651099
45 1 0.276741 0.649536 0.881121
46 1 0.243058 0.854442 0.0905836
49 1 0.320461 0.888596 0.67089
50 1 0.187674 0.83406 0.815272
144 2 0.0932332 0.737615 0.730386
169 2 0.296504 0.747366 0.746663
244 2 0.936486 0.754607 0.828132
51 1 0.526206 0.886281 0.893767
54 1 0.471794 0.0855292 0.654064
55 1 0.437007 0.084895 0.806422
66 1 0.481298 0.652843 0.0881643
69 1 0.43526 0.67553 0.675925
70 1 0.448203 0.669623 0.909819
71 1 0.441076 0.811289 0.0837199
74 1 0.467482 0.890656 0.680473
75 1 0.425263 0.804508 0.828859
194 2 0.535732 0.756394 0.749702
1 1 0.900038 0.900086 0.899777
4 1 0.972822 0.861521 0.701321
5 1 0.0243674 0.0775476 0.882676
16 1 0.861697 0.701441 0.972133
19 1 0.0456004 0.631623 0.625272
20 1 0.0784942 0.616787 0.859396
21 1 0.0766205 0.882025 0.0256077
24 1 0.101471 0.865737 0.589209
25 1 0.0699752 0.829836 0.898872
76 1 0.701307 0.972515 0.861456
79 1 0.625664 0.0448404 0.631773
80 1 0.589136 0.101294 0.866078
91 1 0.632387 0.625661 0.0440404
94 1 0.598141 0.603433 0.602996
95 1 0.665489 0.698714 0.879791
96 1 0.617461 0.859635 0.0767451
99 1 0.698747 0.879826 0.665118
100 1 0.644822 0.848335 0.807332
101 1 0.881994 0.0250817 0.0771133
104 1 0.859641 0.0762404 0.618264
105 1 0.898569 0.0694536 0.8294
116 1 0.86659 0.589655 0.100949
119 1 0.880065 0.665023 0.698378
120 1 0.807335 0.644916 0.848217
121 1 0.829411 0.898656 0.0697058
124 1 0.848492 0.807218 0.645031
125 1 0.773548 0.77337 0.773226
219 2 0.682531 0.68446 0.683923
ITEM: TIMESTEP
200
ITEM: NUMBER OF ATOMS
250
ITEM: BOX BOUNDS pp pp pp
7.5749999999999995e-01 1.3057499999999999e+01
7.5749999999999995e-01 1.3057499999999999e+01
7.5749999999999995e-01 1.3057499999999999e+01
ITEM: ATOMS id type xs ys zs
32 1 0.204884 0.108759 0.209336
126 2 0.115576 0.0973014 0.101998
127 2 0.0982672 0.047319 0.301081
130 2 0.150373 0.0904173 0.931538
131 2 0.15764 0.272277 0.0312326
132 2 0.154987 0.247159 0.252907
135 2 0.165503 0.407061 0.911571
146 2 0.091832 0.90854 0.124325
147 2 0.0802075 0.914445 0.443209
150 2 0.211487 0.90049 0.960941
151 2 0.31021 0.162441 0.117767
152 2 0.298346 0.111751 0.314014
155 2 0.344404 0.0587761 0.974489
156 2 0.329835 0.326859 0.181073
157 2 0.322374 0.311639 0.362916
160 2 0.362018 0.37588 0.00929107
171 2 0.259249 0.954897 0.179085
172 2 0.278746 0.928805 0.40409
175 2 0.415524 0.918399 0.0406727
226 2 0.974387 0.171516 0.178972
227 2 0.0081633 0.196728 0.393341
230 2 0.966054 0.232736 0.955412
231 2 0.0326464 0.36867 0.143141
232 2 0.0240716 0.407675 0.350464
235 2 0.97027 0.445566 0.964986
246 2 0.910257 0.971744 0.218513
247 2 0.906886 0.0149933 0.417136
250 2 0.964535 0.0347217 0.0146903
57 1 0.445112 0.192363 0.238237
176 2 0.55372 0.132806 0.106502
177 2 0.575499 0.149663 0.311479
180 2 0.451842 0.196642 0.947656
181 2 0.532103 0.334046 0.217888
182 2 0.527212 0.344526 0.397167
185 2 0.574613 0.360707 0.0221922
196 2 0.514645 0.9576 0.225034
197 2 0.462789 0.0326043 0.421388
200 2 0.582462 0.0114646 0.987235
7 1 0.0133847 0.285108 0.262274
82 1 0.683651 0.287112 0.198418
107 1 0.890419 0.291372 0.336871
201 2 0.744418 0.133586 0.18955
202 2 0.814027 0.165996 0.327242
205 2 0.651499 0.215827 0.894073
206 2 0.825725 0.338023 0.203576
207 2 0.732464 0.391871 0.390374
210 2 0.78332 0.340357 0.991767
221 2 0.706012 0.937707 0.165219
222 2 0.686121 0.991833 0.363742
225 2 0.761153 0.110458 0.99305
37 1 0.191215 0.360404 0.146717
136 2 0.122577 0.550544 0.078534
137 2 0.201422 0.462581 0.255241
140 2 0.313774 0.558717 0.906547
161 2 0.334165 0.561249 0.117523
162 2 0.408739 0.487202 0.302821
165 2 0.496853 0.54718 0.96584
236 2 0.931009 0.540299 0.170469
237 2 0.0334623 0.609575 0.342741
240 2 0.981119 0.653196 0.983154
62 1 0.435335 0.437339 0.162714
186 2 0.554933 0.53377 0.15268
187 2 0.609833 0.546596 0.343453
190 2 0.662098 0.628281 0.857368
12 1 0.0638846 0.508209 0.217713
87 1 0.655531 0.438262 0.236903
112 1 0.853713 0.450866 0.311522
211 2 0.7657 0.550892 0.209818
212 2 0.83333 0.577779 0.389161
215 2 0.796801 0.56219 0.00809535
27 1 0.144115 0.912162 0.304806
42 1 0.283768 0.592182 0.256041
47 1 0.32204 0.799628 0.350515
141 2 0.192748 0.743723 0.111534
142 2 0.180161 0.765981 0.318003
145 2 0.167724 0.695614 0.918935
166 2 0.3596 0.781089 0.206893
167 2 0.351802 0.664062 0.397198
170 2 0.356328 0.727366 0.000380504
241 2 0.013794 0.730265 0.180907
242 2 0.928459 0.80596 0.360835
245 2 0.912148 0.831029 0.0490784
52 1 0.412919 0.04723 0.149458
67 1 0.437299 0.647876 0.214558
72 1 0.374734 0.985068 0.296345
191 2 0.556767 0.738823 0.228912
192 2 0.462309 0.836123 0.380495
195 2 0.56432 0.772351 0.966171
2 1 0.809585 0.898388 0.334491
17 1 0.137084 0.655463 0.215394
22 1 0.0242592 0.868454 0.247846
77 1 0.630871 0.0501313 0.218661
92 1 0.661568 0.650888 0.219394
97 1 0.593998 0.858436 0.31425
102 1 0.954427 0.0894184 0.301312
117 1 0.878483 0.686425 0.261439
122 1 0.820369 0.823755 0.198322
216 2 0.718933 0.737139 0.112524
217 2 0.728893 0.747026 0.320987
220 2 0.738529 0.892381 0.957705
33 1 0.185153 0.105499 0.426497
128 2 0.0937425 0.0854115 0.561305
133 2 0.162402 0.272885 0.484489
148 2 0.19472 0.841437 0.585847
153 2 0.311941 0.1514 0.508811
158 2 0.357159 0.354012 0.566517
173 2 0.32964 0.993438 0.60265
228 2 0.892986 0.184224 0.553867
233 2 0.0180066 0.379638 0.563404
248 2 0.959018 0.992746 0.614202
58 1 0.403356 0.187999 0.384286
178 2 0.504155 0.217431 0.516635
183 2 0.613483 0.35927 0.596356
198 2 0.573336 0.907855 0.543038
8 1 0.0357183 0.224253 0.531562
83 1 0.665164 0.263002 0.340624
108 1 0.83373 0.303421 0.46339
203 2 0.704166 0.214865 0.492412
208 2 0.812913 0.388542 0.58509
223 2 0.75121 0.0123255 0.567679
38 1 0.181597 0.357734 0.3655
138 2 0.203652 0.466172 0.457782
163 2 0.314344 0.604615 0.590131
238 2 0.933554 0.574062 0.563225
63 1 0.397098 0.40962 0.428753
188 2 0.487149 0.520908 0.514033
13 1 0.0596433 0.516743 0.475863
88 1 0.61169 0.447668 0.458399
113 1 0.910854 0.437247 0.467258
213 2 0.694315 0.54493 0.531551
28 1 0.19212 -0.0254738 0.513236
43 1 0.341014 0.529122 0.468935
48 1 0.273471 0.743286 0.504137
143 2 0.13918 0.659287 0.511239
168 2 0.40296 0.789394 0.570395
243 2 0.982555 0.782919 0.573881
53 1 0.436609 0.095131 0.576756
68 1 0.48416 0.621183 0.353677
73 1 0.428777 0.914085 0.494363
193 2 0.562942 0.709922 0.462659
3 1 0.939227 0.901652 0.491685
18 1 0.197191 0.6034 0.373906
23 1 0.0629589 0.753748 0.429314
78 1 0.595994 0.093563 0.442704
93 1 0.70807 0.643182 0.426071
98 1 0.661049 0.839768 0.443938
103 1 0.784032 0.0935441 0.448584
118 1 0.922889 0.675116 0.454681
123 1 0.793808 0.879108 0.492014
218 2 0.783107 0.724937 0.524953
31 1 0.294623 0.227644 0.967982
34 1 0.2481 0.234239 0.605811
35 1 0.240049 0.26724 0.838514
129 2 0.0915356 0.162625 0.746273
134 2 0.186072 0.340199 0.700971
149 2 0.169363 0.968457 0.748188
154 2 0.291256 0.13516 0.7813
159 2 0.370657 0.316599 0.800367
174 2 0.376963 0.948178 0.804617
229 2 0.927718 0.13785 0.751654
234 2 0.991446 0.346177 0.78499
249 2 0.0167633 0.960928 0.831556
56 1 0.46892 0.268499 0.0816237
59 1 0.393911 0.234555 0.659215
60 1 0.509627 0.281699 0.855314
179 2 0.53453 0.216832 0.72502
184 2 0.552065 0.414959 0.812062
199 2 0.572678 0.00730642 0.716868
6 1 0.892085 0.340374 0.887157
9 1 0.0525434 0.274088 0.667431
10 1 0.109263 0.237768 0.886253
81 1 0.675381 0.236306 0.0611049
84 1 0.619062 0.21352 0.606135
85 1 0.663277 0.363185 0.895126
106 1 0.879292 0.247835 0.0804294
109 1 0.8789 0.279765 0.689766
110 1 0.809354 0.227698 0.83173
204 2 0.730649 0.16615 0.699001
209 2 0.736392 0.359788 0.766284
224 2 0.797597 0.970625 0.763861
36 1 0.237285 0.452118 0.0477163
39 1 0.235419 0.450394 0.606589
40 1 0.277234 0.448994 0.80724
139 2 0.184875 0.560629 0.757996
164 2 0.37184 0.497452 0.710901
239 2 0.983805 0.586839 0.782745
61 1 0.618365 0.502941 0.028371
64 1 0.477507 0.415258 0.653553
65 1 0.417525 0.442297 0.891881
189 2 0.582306 0.539693 0.697482
11 1 0.89455 0.56256 0.90124
14 1 0.101394 0.503766 0.628468
15 1 0.0780205 0.465981 0.782684
86 1 0.737461 0.450074 0.0987666
89 1 0.704156 0.45751 0.651049
90 1 0.703109 0.491627 0.903931
111 1 0.899103 0.411865 0.0901222
114 1 0.922593 0.462247 0.685708
115 1 0.833522 0.458845 0.82859
214 2 0.786307 0.560846 0.708515
26 1 0.360311 0.819655 0.881814
29 1 0.198767 0.103568 0.668825
30 1 0.257783 0.016523 0.872042
41 1 0.249317 0.635083 0.0176217
44 1 0.198988 0.674055 0.661019
45 1 0.397817 0.62898 0.782769
46 1 0.299821 0.840626 0.083156
49 1 0.296677 0.874761 0.690429
50 1 0.203046 0.817385 0.838787
144 2 0.0862456 0.763106 0.747454
169 2 0.297112 0.734292 0.756776
244 2 0.892554 0.78991 0.836892
51 1 0.499258 0.906727 0.905172
54 1 0.430636 0.0921592 0.728923
55 1 0.485995 0.067407 0.869876
66 1 0.483242 0.673101 0.0718069
69 1 0.446484 0.67281 0.655084
70 1 0.527309 0.592501 0.825919
71 1 0.502284 0.834328 0.12953
74 1 0.456612 0.903223 0.672586
75 1 0.461952 0.715362 0.870828
194 2 0.520707 0.788644 0.752369
1 1 0.88098 0.926492 0.916175
4 1 0.935002 0.886897 0.727756
5 1 0.00255007 0.0948943 0.88681
16 1 0.796296 0.73586 0.968409
19 1 0.0444699 0.648473 0.648307
20 1 0.0833217 0.543969 0.926421
21 1 0.051007 0.88579 0.98396
24 1 0.0689154 0.876897 0.662373
25 1 0.0344509 0.767194 0.896488
76 1 0.692446 0.0142149 0.884801
79 1 0.598721 0.056453 0.578965
80 1 0.621468 0.107882 0.806507
91 1 0.650083 0.642934 0.0180865
94 1 0.562156 0.629857 0.586479
95 1 0.679859 0.778263 0.861481
96 1 0.625528 0.867149 0.0676262
99 1 0.688759 0.888766 0.661848
100 1 0.625332 0.896046 0.80756
101 1 0.855412 0.102794 0.102425
104 1 0.843172 0.0762476 0.656817
105 1 0.849243 0.083981 0.876404
116 1 0.893787 0.682177 0.0979874
119 1 0.877761 0.684727 0.668983
120 1 0.814195 0.649082 0.832902
121 1 0.83257 0.96153 0.0831355
124 1 0.832156 0.836285 0.636959
125 1 0.761655 0.755519 0.745661
219 2 0.646879 0.73221 0.649025
ITEM: TIMESTEP
300
ITEM: NUMBER OF ATOMS
250
ITEM: BOX BOUNDS pp pp pp
7.5749999999999995e-01 1.3057499999999999e+01
7.5749999999999995e-01 1.3057499999999999e+01
7.5749999999999995e-01 1.3057499999999999e+01
ITEM: ATOMS id type xs ys zs
32 1 0.199019 0.0943191 0.203919
126 2 0.108611 0.0889204 0.0979754
127 2 0.0921414 0.0394675 0.294621
130 2 0.163934 0.0788109 0.939847
131 2 0.181092 0.268277 0.0228151
132 2 0.158704 0.236205 0.243905
135 2 0.189939 0.424808 0.898291
146 2 0.0886761 0.890194 0.0998579
147 2 0.0740932 0.909115 0.43809
150 2 0.237907 0.901404 0.966856
151 2 0.305156 0.131888 0.113403
152 2 0.290745 0.10247 0.31068
155 2 0.379518 0.0585153 0.953805
156 2 0.339653 0.300157 0.169064
157 2 0.326844 0.301466 0.361922
160 2 0.388243 0.422921 0.997551
171 2 0.239084 0.947003 0.181016
172 2 0.272598 0.92017 0.396193
175 2 0.418243 0.938571 0.0790328
226 2 0.973594 0.165098 0.17442
227 2 0.00560752 0.19241 0.386663
230 2 0.983564 0.225292 0.952223
231 2 0.0419817 0.356966 0.132699
232 2 0.0312072 0.398396 0.337333
235 2 0.98463 0.440088 0.958765
246 2 0.91764 0.966901 0.220699
247 2 0.906627 0.0118502 0.414487
250 2 0.959479 0.0233067 0.0140605
57 1 0.44765 0.198533 0.256887
176 2 0.52702 0.174807 0.0855719
177 2 0.576714 0.138001 0.299372
180 2 0.395637 0.260946 0.963999
181 2 0.535454 0.338097 0.222713
182 2 0.52368 0.346962 0.394844
185 2 0.586429 0.370376 0.0239206
196 2 0.527431 0.93489 0.251833
197 2 0.453255 0.0272775 0.412075
200 2 0.593422 0.016001 0.0701306
7 1 0.0157106 0.277885 0.253748
82 1 0.681807 0.265905 0.176681
107 1 0.889009 0.288919 0.32668
201 2 0.741401 0.118511 0.18098
202 2 0.813227 0.159573 0.317696
205 2 0.613645 0.218153 0.880255
206 2 0.823211 0.328105 0.191399
207 2 0.726979 0.388291 0.379806
210 2 0.784619 0.331739 0.976724
221 2 0.729726 0.906424 0.187779
222 2 0.693691 0.986492 0.372241
225 2 0.769569 0.122385 0.988287
37 1 0.201571 0.347219 0.139779
136 2 0.13297 0.547778 0.070016
137 2 0.214355 0.44766 0.246558
140 2 0.299847 0.583016 0.903801
161 2 0.336752 0.577221 0.116397
162 2 0.405604 0.485332 0.300024
165 2 0.499731 0.57671 0.929695
236 2 0.936792 0.52203 0.166651
237 2 0.0339107 0.599213 0.351641
240 2 0.970629 0.64347 0.981802
62 1 0.429403 0.447802 0.155776
186 2 0.553299 0.542757 0.140154
187 2 0.606302 0.544146 0.339781
190 2 0.670198 0.665262 0.848872
12 1 0.0764971 0.499138 0.210168
87 1 0.65926 0.429091 0.223163
112 1 0.854149 0.44347 0.304558
211 2 0.764837 0.546403 0.203153
212 2 0.83019 0.56991 0.391232
215 2 0.788999 0.546031 -0.00236874
27 1 0.13482 0.901236 0.299784
42 1 0.280122 0.584416 0.259304
47 1 0.315413 0.786151 0.371074
141 2 0.203439 0.74072 0.123344
142 2 0.176421 0.754949 0.324504
145 2 0.152206 0.716133 0.938295
166 2 0.360961 0.788621 0.225309
167 2 0.342797 0.64442 0.405147
170 2 0.364376 0.744921 1.00061
241 2 0.0184497 0.71085 0.175747
242 2 0.929352 0.794918 0.351773
245 2 0.892201 0.824059 0.0692508
52 1 0.436329 0.0706182 0.17791
67 1 0.430799 0.65203 0.224455
72 1 0.371982 0.975017 0.283866
191 2 0.552187 0.731866 0.247523
192 2 0.450522 0.822936 0.411592
195 2 0.568235 0.804745 0.966491
2 1 0.808478 0.888677 0.327952
17 1 0.14267 0.64342 0.217446
22 1 0.0225951 0.851653 0.232764
77 1 0.640285 0.0227903 0.222295
92 1 0.655015 0.638203 0.225271
97 1 0.593545 0.845257 0.352539
102 1 0.953194 0.0849417 0.297315
117 1 0.902547 0.646139 0.270937
122 1 0.823973 0.764217 0.214535
216 2 0.700679 0.720206 0.110842
217 2 0.7253 0.741353 0.329063
220 2 0.746022 0.922582 0.975927
33 1 0.169713 0.0997629 0.421674
128 2 0.087846 0.0789272 0.567967
133 2 0.160888 0.263134 0.474658
148 2 0.186212 0.845024 0.586468
153 2 0.308109 0.141822 0.501592
158 2 0.368486 0.342363 0.568032
173 2 0.306844 0.00871296 0.592149
228 2 0.886645 0.181931 0.544108
233 2 0.00970442 0.365929 0.549517
248 2 0.952262 0.99158 0.613547
58 1 0.391295 0.165416 0.390973
178 2 0.49281 0.211094 0.493954
183 2 0.613042 0.356971 0.584186
198 2 0.566856 0.91949 0.552148
8 1 0.0311657 0.216948 0.527181
83 1 0.663122 0.256862 0.325934
108 1 0.828298 0.300744 0.453073
203 2 0.695446 0.207723 0.476138
208 2 0.807544 0.387675 0.577584
223 2 0.750301 0.016291 0.568092
38 1 0.186693 0.346349 0.357331
138 2 0.205272 0.4541 0.451419
163 2 0.333588 0.636051 0.609975
238 2 0.943225 0.566208 0.564043
63 1 0.392244 0.411529 0.428265
188 2 0.484834 0.512354 0.521682
13 1 0.0449404 0.488647 0.458604
88 1 0.609207 0.444091 0.454577
113 1 0.900008 0.436046 0.460297
213 2 0.688045 0.542745 0.53407
28 1 0.184007 0.971679 0.501342
43 1 0.332707 0.529725 0.506137
48 1 0.277829 0.749845 0.510473
143 2 0.150821 0.653037 0.518415
168 2 0.394988 0.821833 0.607525
243 2 0.984529 0.778329 0.570649
53 1 0.446706 0.0818588 0.626237