ITEM: TIMESTEP
0
ITEM: NUMBER OF ATOMS
250
ITEM: BOX BOUNDS pp pp pp
7.5749999999999995e-01 1.3057499999999999e+01
7.5749999999999995e-01 1.3057499999999999e+01
7.5749999999999995e-01 1.3057499999999999e+01
ITEM: ATOMS id type xs ys zs
32 1 0.199059 0.0941833 0.203946
126 2 0.108661 0.0887744 0.0980686
127 2 0.0921517 0.0394377 0.294692
131 2 0.181268 0.268288 0.0225206
132 2 0.158768 0.236044 0.243779
151 2 0.305106 0.131706 0.113306
152 2 0.290799 0.102366 0.310617
7 1 0.0157648 0.27782 0.253655
156 2 0.339726 0.299882 0.168797
57 1 0.447933 0.198346 0.256645
176 2 0.526774 0.174982 0.0862259
177 2 0.576888 0.13816 0.299456
200 2 0.593282 0.0161991 0.069863
52 1 0.435994 0.0700265 0.177961
77 1 0.640311 0.0230855 0.222127
83 1 0.663394 0.256881 0.326022
56 1 0.468247 0.315114 0.0876587
226 2 0.973579 0.165032 0.174434
250 2 0.959803 0.0232712 0.0142663
82 1 0.68189 0.266742 0.177037
107 1 0.88904 0.288838 0.326779
201 2 0.7413 0.119018 0.180393
202 2 0.813206 0.159395 0.317478
206 2 0.823507 0.328282 0.191517
102 1 0.953222 0.0849155 0.297346
81 1 0.671876 0.232429 0.0354082
106 1 0.890534 0.247476 0.0715058
101 1 0.855562 0.100018 0.0975569
231 2 0.0420952 0.356837 0.132521
37 1 0.201656 0.347024 0.139627
136 2 0.132951 0.5477 0.0699496
137 2 0.214471 0.447484 0.246372
12 1 0.0766003 0.499048 0.21006
42 1 0.280192 0.584273 0.259259
17 1 0.142626 0.643293 0.217578
36 1 0.24909 0.446424 0.0511726
41 1 0.249702 0.65078 0.0227421
181 2 0.53534 0.338377 0.222701
185 2 0.586272 0.370307 0.0239849
161 2 0.336789 0.577116 0.116342
162 2 0.405622 0.485378 0.299923
62 1 0.429555 0.447962 0.155582
186 2 0.553511 0.543016 0.140213
87 1 0.659145 0.429456 0.223417
67 1 0.431112 0.65194 0.223965
92 1 0.655159 0.638437 0.225502
61 1 0.628885 0.517217 0.0140062
236 2 0.936897 0.521941 0.166535
112 1 0.854255 0.443579 0.304682
211 2 0.764909 0.546518 0.20329
117 1 0.902506 0.645995 0.270873
86 1 0.741514 0.435853 0.0922812
111 1 0.905339 0.405195 0.0786405
116 1 0.891387 0.664255 0.104513
146 2 0.0887971 0.890044 0.100054
171 2 0.239106 0.946809 0.18115
27 1 0.134692 0.901194 0.29992
141 2 0.20343 0.740496 0.123413
142 2 0.176319 0.754979 0.324538
241 2 0.0184208 0.710729 0.175789
22 1 0.0224863 0.85157 0.232846
46 1 0.304658 0.847429 0.096582
175 2 0.418213 0.938189 0.0790553
196 2 0.527506 0.935059 0.25176
166 2 0.361018 0.788389 0.225269
170 2 0.364243 0.744746 0.000644596
72 1 0.371835 0.974702 0.283997
191 2 0.552276 0.732011 0.247717
66 1 0.480411 0.67737 0.0732268
71 1 0.501336 0.827183 0.14489
96 1 0.628113 0.856369 0.0936908
246 2 0.917617 0.966993 0.220792
221 2 0.729763 0.906831 0.187802
245 2 0.892406 0.824108 0.0693553
2 1 0.80848 0.888758 0.327883
122 1 0.824176 0.7643 0.214607
216 2 0.700854 0.7205 0.111334
217 2 0.725351 0.74166 0.329264
121 1 0.834614 0.957709 0.100271
157 2 0.326922 0.301342 0.361703
227 2 0.00558337 0.192381 0.386632
33 1 0.16979 0.0996268 0.421753
128 2 0.0878635 0.0788829 0.568176
133 2 0.160913 0.262996 0.474524
153 2 0.308159 0.141754 0.501529
173 2 0.306884 0.0087599 0.592305
8 1 0.0311398 0.216856 0.527177
34 1 0.237369 0.22198 0.593419
197 2 0.453334 0.0272653 0.412011
58 1 0.39137 0.165328 0.390826
178 2 0.492793 0.211127 0.493839
53 1 0.446684 0.0819999 0.626416
78 1 0.586108 0.0849928 0.439064
59 1 0.3585 0.224236 0.663859
84 1 0.60652 0.213458 0.589543
79 1 0.599152 0.0689715 0.584831
247 2 0.906639 0.0118572 0.414563
228 2 0.886559 0.181974 0.544
108 1 0.828301 0.300765 0.453088
203 2 0.695463 0.207774 0.476032
223 2 0.750225 0.0163752 0.568162
103 1 0.785225 0.0919341 0.444561
104 1 0.840089 0.0844493 0.652501
232 2 0.0312451 0.398363 0.33713
237 2 0.0337729 0.599219 0.351706
233 2 0.00968536 0.365792 0.549373
38 1 0.186755 0.346191 0.357137
138 2 0.205214 0.453978 0.451183
13 1 0.0449673 0.488465 0.458328
43 1 0.332546 0.529789 0.505895
143 2 0.150756 0.652947 0.518476
18 1 0.192076 0.592635 0.377093
39 1 0.257245 0.45139 0.606813
14 1 0.116299 0.510419 0.59016
19 1 0.0471433 0.646822 0.654026
182 2 0.523747 0.347004 0.394748
187 2 0.606332 0.544302 0.339894
167 2 0.342705 0.644488 0.404827
158 2 0.368266 0.342308 0.56784
183 2 0.613073 0.357037 0.583985
163 2 0.33362 0.636094 0.609709
63 1 0.39222 0.411493 0.428119
188 2 0.484717 0.512259 0.521551
88 1 0.609191 0.444165 0.454538
68 1 0.475014 0.608945 0.360087
64 1 0.483396 0.41666 0.657029
94 1 0.56374 0.620324 0.59238
207 2 0.727034 0.388399 0.379814
212 2 0.830136 0.570101 0.391374
208 2 0.807552 0.387712 0.577562
238 2 0.943324 0.56615 0.564104
113 1 0.900011 0.43613 0.460315
213 2 0.68794 0.542837 0.534141
93 1 0.707289 0.638029 0.429433
89 1 0.702365 0.452626 0.647991
147 2 0.0740412 0.909129 0.438281
172 2 0.272472 0.920159 0.39641
47 1 0.315317 0.78619 0.371001
148 2 0.18618 0.845049 0.586697
28 1 0.183947 0.971689 0.501539
48 1 0.277739 0.749994 0.510317
23 1 0.0646711 0.744072 0.433049
24 1 0.0577571 0.876179 0.663629
192 2 0.450373 0.822972 0.411586
97 1 0.593445 0.845628 0.352804
198 2 0.566846 0.919489 0.552144
168 2 0.395 0.821873 0.607626
73 1 0.418723 0.926549 0.505774
193 2 0.543609 0.697362 0.473926
98 1 0.657386 0.817612 0.479854
69 1 0.462973 0.697501 0.654007
219 2 0.650007 0.728248 0.64189
222 2 0.693718 0.986516 0.37231
242 2 0.929316 0.794923 0.35191
248 2 0.952113 0.991728 0.613714
243 2 0.984526 0.778402 0.570875
3 1 0.936962 0.896295 0.487335
118 1 0.923226 0.671166 0.460529
123 1 0.794174 0.877488 0.485468
218 2 0.791644 0.715263 0.526793
99 1 0.696808 0.888382 0.641574
124 1 0.834842 0.832751 0.633582
130 2 0.164248 0.0787326 0.940047
31 1 0.279831 0.175111 0.967379
35 1 0.211092 0.247046 0.835329
129 2 0.0947644 0.158206 0.765604
134 2 0.174386 0.326909 0.672475
154 2 0.298965 0.131165 0.773348
9 1 0.0400536 0.259376 0.667127
10 1 0.0995942 0.314083 0.906231
29 1 0.194401 0.100578 0.672249
30 1 0.271445 0.0100826 0.863583
5 1 0.0247595 0.0949167 0.889451
155 2 0.379585 0.0581518 0.954124
180 2 0.396193 0.260708 0.963794
205 2 0.61305 0.21804 0.880432
159 2 0.341883 0.325864 0.787463
60 1 0.468611 0.257438 0.83683
179 2 0.512181 0.231645 0.697833
199 2 0.595252 0.0285442 0.744727
54 1 0.45978 0.102828 0.791283
55 1 0.521937 0.0999574 0.928101
76 1 0.663579 0.033593 0.936427
230 2 0.983664 0.225345 0.952254
210 2 0.784441 0.33161 0.976852
225 2 0.769907 0.121934 0.987404
229 2 0.92552 0.150814 0.741998
109 1 0.868321 0.291239 0.686796
110 1 0.809955 0.229173 0.833328
204 2 0.720706 0.190261 0.682871
80 1 0.706111 0.108363 0.816059
105 1 0.875317 0.0991274 0.87788
135 2 0.189865 0.425006 0.898164
140 2 0.299935 0.582983 0.90363
234 2 0.00468574 0.350949 0.777105
40 1 0.255121 0.442427 0.758302
139 2 0.190532 0.583117 0.758418
15 1 0.0912151 0.467405 0.722901
20 1 0.0973436 0.558727 0.913589
160 2 0.38805 0.422807 0.997314
165 2 0.499882 0.576875 0.930342
184 2 0.526696 0.395973 0.830985
85 1 0.653219 0.368897 0.891546
164 2 0.384039 0.511015 0.718288
65 1 0.40572 0.481091 0.869578
189 2 0.587853 0.525716 0.715618
45 1 0.383286 0.663665 0.785331
70 1 0.531505 0.652667 0.796303
91 1 0.620601 0.659738 0.999921
235 2 0.984541 0.440127 0.958679
240 2 0.970606 0.64352 0.981572
190 2 0.670244 0.664973 0.848621
215 2 0.789105 0.545963 0.997772
6 1 0.89932 0.336325 0.877005
209 2 0.719895 0.357153 0.761349
239 2 0.989415 0.568691 0.784269
11 1 0.897491 0.546625 0.89928
90 1 0.686088 0.50779 0.870808
114 1 0.920325 0.454962 0.681012
115 1 0.830108 0.449273 0.825365
214 2 0.789873 0.554253 0.70483
120 1 0.824856 0.640298 0.832883
150 2 0.237821 0.901229 0.966928
145 2 0.152282 0.716005 0.938312
149 2 0.172836 0.967712 0.746739
249 2 0.0209992 0.961924 0.827129
44 1 0.199723 0.698886 0.671585
49 1 0.286941 0.890854 0.686533
50 1 0.151648 0.843323 0.861905
144 2 0.0700514 0.760389 0.753707
169 2 0.278699 0.778027 0.784529
21 1 0.00920015 0.873702 0.977361
25 1 0.011974 0.756695 0.899694
195 2 0.568134 0.804256 0.966657
174 2 0.384451 0.945425 0.782884
26 1 0.422854 0.90002 0.92189
51 1 0.558928 0.946708 0.884528
74 1 0.484751 0.934377 0.677133
75 1 0.444034 0.765667 0.873268
194 2 0.539729 0.817299 0.753891
220 2 0.745928 0.922157 0.976188
224 2 0.801447 0.982568 0.76806
244 2 0.877411 0.791905 0.846662
1 1 0.877653 0.943648 0.899407
4 1 0.92509 0.886278 0.727549
16 1 0.798433 0.716232 0.989401
95 1 0.712416 0.802721 0.900201
100 1 0.67774 0.886578 0.787803
119 1 0.88584 0.681628 0.677261
125 1 0.761917 0.750925 0.740184
ITEM: TIMESTEP
100
ITEM: NUMBER OF ATOMS
250
ITEM: BOX BOUNDS pp pp pp
7.5749999999999995e-01 1.3057499999999999e+01
7.5749999999999995e-01 1.3057499999999999e+01
7.5749999999999995e-01 1.3057499999999999e+01
ITEM: ATOMS id type xs ys zs
32 1 0.199059 0.0941833 0.203946
126 2 0.108661 0.0887744 0.0980686
127 2 0.0921517 0.0394377 0.294692
131 2 0.181268 0.268288 0.0225206
132 2 0.158768 0.236044 0.243779
151 2 0.305106 0.131706 0.113306
152 2 0.290799 0.102366 0.310617
7 1 0.0157648 0.27782 0.253655
156 2 0.339726 0.299882 0.168797
57 1 0.447933 0.198346 0.256645
176 2 0.526774 0.174982 0.0862259
177 2 0.576888 0.13816 0.299456
200 2 0.593282 0.0161991 0.069863
52 1 0.435994 0.0700265 0.177961
77 1 0.640311 0.0230855 0.222127
83 1 0.663394 0.256881 0.326022
56 1 0.468247 0.315114 0.0876587
226 2 0.973579 0.165032 0.174434
250 2 0.959803 0.0232712 0.0142663
82 1 0.68189 0.266742 0.177037
107 1 0.88904 0.288838 0.326779
201 2 0.7413 0.119018 0.180393
202 2 0.813206 0.159395 0.317478
206 2 0.823507 0.328282 0.191517
102 1 0.953222 0.0849155 0.297346
81 1 0.671876 0.232429 0.0354082
106 1 0.890534 0.247476 0.0715058
101 1 0.855562 0.100018 0.0975569
231 2 0.0420952 0.356837 0.132521
37 1 0.201656 0.347024 0.139627
136 2 0.132951 0.5477 0.0699496
137 2 0.214471 0.447484 0.246372
12 1 0.0766003 0.499048 0.21006
42 1 0.280192 0.584273 0.259259
17 1 0.142626 0.643293 0.217578
36 1 0.24909 0.446424 0.0511726
41 1 0.249702 0.65078 0.0227421
181 2 0.53534 0.338377 0.222701
185 2 0.586272 0.370307 0.0239849
161 2 0.336789 0.577116 0.116342
162 2 0.405622 0.485378 0.299923
62 1 0.429555 0.447962 0.155582
186 2 0.553511 0.543016 0.140213
87 1 0.659145 0.429456 0.223417
67 1 0.431112 0.65194 0.223965
92 1 0.655159 0.638437 0.225502
61 1 0.628885 0.517217 0.0140062
236 2 0.936897 0.521941 0.166535
112 1 0.854255 0.443579 0.304682
211 2 0.764909 0.546518 0.20329
117 1 0.902506 0.645995 0.270873
86 1 0.741514 0.435853 0.0922812
111 1 0.905339 0.405195 0.0786405
116 1 0.891387 0.664255 0.104513
146 2 0.0887971 0.890044 0.100054
171 2 0.239106 0.946809 0.18115
27 1 0.134692 0.901194 0.29992
141 2 0.20343 0.740496 0.123413
142 2 0.176319 0.754979 0.324538
241 2 0.0184208 0.710729 0.175789
22 1 0.0224863 0.85157 0.232846
46 1 0.304658 0.847429 0.096582
175 2 0.418213 0.938189 0.0790553
196 2 0.527506 0.935059 0.25176
166 2 0.361018 0.788389 0.225269
170 2 0.364243 0.744746 0.000644596
72 1 0.371835 0.974702 0.283997
191 2 0.552276 0.732011 0.247717
66 1 0.480411 0.67737 0.0732268
71 1 0.501336 0.827183 0.14489
96 1 0.628113 0.856369 0.0936908
246 2 0.917617 0.966993 0.220792
221 2 0.729763 0.906831 0.187802
245 2 0.892406 0.824108 0.0693553
2 1 0.80848 0.888758 0.327883
122 1 0.824176 0.7643 0.214607
216 2 0.700854 0.7205 0.111334
217 2 0.725351 0.74166 0.329264
121 1 0.834614 0.957709 0.100271
157 2 0.326922 0.301342 0.361703
227 2 0.00558337 0.192381 0.386632
33 1 0.16979 0.0996268 0.421753
128 2 0.0878635 0.0788829 0.568176
133 2 0.160913 0.262996 0.474524
153 2 0.308159 0.141754 0.501529
173 2 0.306884 0.0087599 0.592305
8 1 0.0311398 0.216856 0.527177
34 1 0.237369 0.22198 0.593419
197 2 0.453334 0.0272653 0.412011
58 1 0.39137 0.165328 0.390826
178 2 0.492793 0.211127 0.493839
53 1 0.446684 0.0819999 0.626416
78 1 0.586108 0.0849928 0.439064
59 1 0.3585 0.224236 0.663859
84 1 0.60652 0.213458 0.589543
79 1 0.599152 0.0689715 0.584831
247 2 0.906639 0.0118572 0.414563
228 2 0.886559 0.181974 0.544
108 1 0.828301 0.300765 0.453088
203 2 0.695463 0.207774 0.476032
223 2 0.750225 0.0163752 0.568162
103 1 0.785225 0.0919341 0.444561
104 1 0.840089 0.0844493 0.652501
232 2 0.0312451 0.398363 0.33713
237 2 0.0337729 0.599219 0.351706
233 2 0.00968536 0.365792 0.549373
38 1 0.186755 0.346191 0.357137
138 2 0.205214 0.453978 0.451183
13 1 0.0449673 0.488465 0.458328
43 1 0.332546 0.529789 0.505895
143 2 0.150756 0.652947 0.518476
18 1 0.192076 0.592635 0.377093
39 1 0.257245 0.45139 0.606813
14 1 0.116299 0.510419 0.59016
19 1 0.0471433 0.646822 0.654026
182 2 0.523747 0.347004 0.394748
187 2 0.606332 0.544302 0.339894
167 2 0.342705 0.644488 0.404827
158 2 0.368266 0.342308 0.56784
183 2 0.613073 0.357037 0.583985
163 2 0.33362 0.636094 0.609709
63 1 0.39222 0.411493 0.428119
188 2 0.484717 0.512259 0.521551
88 1 0.609191 0.444165 0.454538
68 1 0.475014 0.608945 0.360087
64 1 0.483396 0.41666 0.657029
94 1 0.56374 0.620324 0.59238
207 2 0.727034 0.388399 0.379814
212 2 0.830136 0.570101 0.391374
208 2 0.807552 0.387712 0.577562
238 2 0.943324 0.56615 0.564104
113 1 0.900011 0.43613 0.460315
213 2 0.68794 0.542837 0.534141
93 1 0.707289 0.638029 0.429433
89 1 0.702365 0.452626 0.647991
147 2 0.0740412 0.909129 0.438281
172 2 0.272472 0.920159 0.39641
47 1 0.315317 0.78619 0.371001
148 2 0.18618 0.845049 0.586697
28 1 0.183947 0.971689 0.501539
48 1 0.277739 0.749994 0.510317
23 1 0.0646711 0.744072 0.433049
24 1 0.0577571 0.876179 0.663629
192 2 0.450373 0.822972 0.411586
97 1 0.593445 0.845628 0.352804
198 2 0.566846 0.919489 0.552144
168 2 0.395 0.821873 0.607626
73 1 0.418723 0.926549 0.505774
193 2 0.543609 0.697362 0.473926
98 1 0.657386 0.817612 0.479854
69 1 0.462973 0.697501 0.654007
219 2 0.650007 0.728248 0.64189
222 2 0.693718 0.986516 0.37231
242 2 0.929316 0.794923 0.35191
248 2 0.952113 0.991728 0.613714
243 2 0.984526 0.778402 0.570875
3 1 0.936962 0.896295 0.487335
118 1 0.923226 0.671166 0.460529
123 1 0.794174 0.877488 0.485468
218 2 0.791644 0.715263 0.526793
99 1 0.696808 0.888382 0.641574
124 1 0.834842 0.832751 0.633582
130 2 0.164248 0.0787326 0.940047
31 1 0.279831 0.175111 0.967379
35 1 0.211092 0.247046 0.835329
129 2 0.0947644 0.158206 0.765604
134 2 0.174386 0.326909 0.672475
154 2 0.298965 0.131165 0.773348
9 1 0.0400536 0.259376 0.667127
10 1 0.0995942 0.314083 0.906231
29 1 0.194401 0.100578 0.672249
30 1 0.271445 0.0100826 0.863583
5 1 0.0247595 0.0949167 0.889451
155 2 0.379585 0.0581518 0.954124
180 2 0.396193 0.260708 0.963794
205 2 0.61305 0.21804 0.880432
159 2 0.341883 0.325864 0.787463
60 1 0.468611 0.257438 0.83683
179 2 0.512181 0.231645 0.697833
199 2 0.595252 0.0285442 0.744727
54 1 0.45978 0.102828 0.791283
55 1 0.521937 0.0999574 0.928101
76 1 0.663579 0.033593 0.936427
230 2 0.983664 0.225345 0.952254
210 2 0.784441 0.33161 0.976852
225 2 0.769907 0.121934 0.987404
229 2 0.92552 0.150814 0.741998
109 1 0.868321 0.291239 0.686796
110 1 0.809955 0.229173 0.833328
204 2 0.720706 0.190261 0.682871
80 1 0.706111 0.108363 0.816059
105 1 0.875317 0.0991274 0.87788
135 2 0.189865 0.425006 0.898164
140 2 0.299935 0.582983 0.90363
234 2 0.00468574 0.350949 0.777105
40 1 0.255121 0.442427 0.758302
139 2 0.190532 0.583117 0.758418
15 1 0.0912151 0.467405 0.722901
20 1 0.0973436 0.558727 0.913589
160 2 0.38805 0.422807 0.997314
165 2 0.499882 0.576875 0.930342
184 2 0.526696 0.395973 0.830985
85 1 0.653219 0.368897 0.891546
164 2 0.384039 0.511015 0.718288
65 1 0.40572 0.481091 0.869578
189 2 0.587853 0.525716 0.715618
45 1 0.383286 0.663665 0.785331
70 1 0.531505 0.652667 0.796303
91 1 0.620601 0.659738 0.999921
235 2 0.984541 0.440127 0.958679
240 2 0.970606 0.64352 0.981572
190 2 0.670244 0.664973 0.848621
215 2 0.789105 0.545963 0.997772
6 1 0.89932 0.336325 0.877005
209 2 0.719895 0.357153 0.761349
239 2 0.989415 0.568691 0.784269
11 1 0.897491 0.546625 0.89928
90 1 0.686088 0.50779 0.870808
114 1 0.920325 0.454962 0.681012
115 1 0.830108 0.449273 0.825365
214 2 0.789873 0.554253 0.70483
120 1 0.824856 0.640298 0.832883
150 2 0.237821 0.901229 0.966928
145 2 0.152282 0.716005 0.938312
149 2 0.172836 0.967712 0.746739
249 2 0.0209992 0.961924 0.827129
44 1 0.199723 0.698886 0.671585
49 1 0.286941 0.890854 0.686533
50 1 0.151648 0.843323 0.861905
144 2 0.0700514 0.760389 0.753707
169 2 0.278699 0.778027 0.784529
21 1 0.00920015 0.873702 0.977361
25 1 0.011974 0.756695 0.899694
195 2 0.568134 0.804256 0.966657
174 2 0.384451 0.945425 0.782884
26 1 0.422854 0.90002 0.92189
51 1 0.558928 0.946708 0.884528
74 1 0.484751 0.934377 0.677133
75 1 0.444034 0.765667 0.873268
194 2 0.539729 0.817299 0.753891
220 2 0.745928 0.922157 0.976188
224 2 0.801447 0.982568 0.76806
244 2 0.877411 0.791905 0.846662
1 1 0.877653 0.943648 0.899407
4 1 0.92509 0.886278 0.727549
16 1 0.798433 0.716232 0.989401
95 1 0.712416 0.802721 0.900201
100 1 0.67774 0.886578 0.787803
119 1 0.88584 0.681628 0.677261
125 1 0.761917 0.750925 0.740184
ITEM: TIMESTEP
200
ITEM: NUMBER OF ATOMS
250
ITEM: BOX BOUNDS pp pp pp
7.5749999999999995e-01 1.3057499999999999e+01
7.5749999999999995e-01 1.3057499999999999e+01
7.5749999999999995e-01 1.3057499999999999e+01
ITEM: ATOMS id type xs ys zs
32 1 0.199059 0.0941833 0.203946
126 2 0.108661 0.0887744 0.0980686
127 2 0.0921517 0.0394377 0.294692
131 2 0.181268 0.268288 0.0225206
132 2 0.158768 0.236044 0.243779
151 2 0.305106 0.131706 0.113306
152 2 0.290799 0.102366 0.310617
7 1 0.0157648 0.27782 0.253655
156 2 0.339726 0.299882 0.168797
57 1 0.447933 0.198346 0.256645
176 2 0.526774 0.174982 0.0862259
177 2 0.576888 0.13816 0.299456
200 2 0.593282 0.0161991 0.069863
52 1 0.435994 0.0700265 0.177961
77 1 0.640311 0.0230855 0.222127
83 1 0.663394 0.256881 0.326022
56 1 0.468247 0.315114 0.0876587
226 2 0.973579 0.165032 0.174434
250 2 0.959803 0.0232712 0.0142663
82 1 0.68189 0.266742 0.177037
107 1 0.88904 0.288838 0.326779
201 2 0.7413 0.119018 0.180393
202 2 0.813206 0.159395 0.317478
206 2 0.823507 0.328282 0.191517
102 1 0.953222 0.0849155 0.297346
81 1 0.671876 0.232429 0.0354082
106 1 0.890534 0.247476 0.0715058
101 1 0.855562 0.100018 0.0975569
231 2 0.0420952 0.356837 0.132521
37 1 0.201656 0.347024 0.139627
136 2 0.132951 0.5477 0.0699496
137 2 0.214471 0.447484 0.246372
12 1 0.0766003 0.499048 0.21006
42 1 0.280192 0.584273 0.259259
17 1 0.142626 0.643293 0.217578
36 1 0.24909 0.446424 0.0511726
41 1 0.249702 0.65078 0.0227421
181 2 0.53534 0.338377 0.222701
185 2 0.586272 0.370307 0.0239849
161 2 0.336789 0.577116 0.116342
162 2 0.405622 0.485378 0.299923
62 1 0.429555 0.447962 0.155582
186 2 0.553511 0.543016 0.140213
87 1 0.659145 0.429456 0.223417
67 1 0.431112 0.65194 0.223965
92 1 0.655159 0.638437 0.225502
61 1 0.628885 0.517217 0.0140062
236 2 0.936897 0.521941 0.166535
112 1 0.854255 0.443579 0.304682
211 2 0.764909 0.546518 0.20329
117 1 0.902506 0.645995 0.270873
86 1 0.741514 0.435853 0.0922812
111 1 0.905339 0.405195 0.0786405
116 1 0.891387 0.664255 0.104513
146 2 0.0887971 0.890044 0.100054
171 2 0.239106 0.946809 0.18115
27 1 0.134692 0.901194 0.29992
141 2 0.20343 0.740496 0.123413
142 2 0.176319 0.754979 0.324538
241 2 0.0184208 0.710729 0.175789
22 1 0.0224863 0.85157 0.232846
46 1 0.304658 0.847429 0.096582
175 2 0.418213 0.938189 0.0790553
196 2 0.527506 0.935059 0.25176
166 2 0.361018 0.788389 0.225269
170 2 0.364243 0.744746 0.000644596
72 1 0.371835 0.974702 0.283997
191 2 0.552276 0.732011 0.247717
66 1 0.480411 0.67737 0.0732268
71 1 0.501336 0.827183 0.14489
96 1 0.628113 0.856369 0.0936908
246 2 0.917617 0.966993 0.220792
221 2 0.729763 0.906831 0.187802
245 2 0.892406 0.824108 0.0693553
2 1 0.80848 0.888758 0.327883
122 1 0.824176 0.7643 0.214607
216 2 0.700854 0.7205 0.111334
217 2 0.725351 0.74166 0.329264
121 1 0.834614 0.957709 0.100271
157 2 0.326922 0.301342 0.361703
227 2 0.00558337 0.192381 0.386632
33 1 0.16979 0.0996268 0.421753
128 2 0.0878635 0.0788829 0.568176
133 2 0.160913 0.262996 0.474524
153 2 0.308159 0.141754 0.501529
173 2 0.306884 0.0087599 0.592305
8 1 0.0311398 0.216856 0.527177
34 1 0.237369 0.22198 0.593419
197 2 0.453334 0.0272653 0.412011
58 1 0.39137 0.165328 0.390826
178 2 0.492793 0.211127 0.493839
53 1 0.446684 0.0819999 0.626416
78 1 0.586108 0.0849928 0.439064
59 1 0.3585 0.224236 0.663859
84 1 0.60652 0.213458 0.589543
79 1 0.599152 0.0689715 0.584831
247 2 0.906639 0.0118572 0.414563
228 2 0.886559 0.181974 0.544
108 1 0.828301 0.300765 0.453088
203 2 0.695463 0.207774 0.476032
223 2 0.750225 0.0163752 0.568162
103 1 0.785225 0.0919341 0.444561
104 1 0.840089 0.0844493 0.652501
232 2 0.0312451 0.398363 0.33713
237 2 0.0337729 0.599219 0.351706
233 2 0.00968536 0.365792 0.549373
38 1 0.186755 0.346191 0.357137
138 2 0.205214 0.453978 0.451183
13 1 0.0449673 0.488465 0.458328
43 1 0.332546 0.529789 0.505895
143 2 0.150756 0.652947 0.518476
18 1 0.192076 0.592635 0.377093
39 1 0.257245 0.45139 0.606813
14 1 0.116299 0.510419 0.59016
19 1 0.0471433 0.646822 0.654026
182 2 0.523747 0.347004 0.394748
187 2 0.606332 0.544302 0.339894
167 2 0.342705 0.644488 0.404827
158 2 0.368266 0.342308 0.56784
183 2 0.613073 0.357037 0.583985
163 2 0.33362 0.636094 0.609709
63 1 0.39222 0.411493 0.428119
188 2 0.484717 0.512259 0.521551
88 1 0.609191 0.444165 0.454538
68 1 0.475014 0.608945 0.360087
64 1 0.483396 0.41666 0.657029
94 1 0.56374 0.620324 0.59238
207 2 0.727034 0.388399 0.379814
212 2 0.830136 0.570101 0.391374
208 2 0.807552 0.387712 0.577562
238 2 0.943324 0.56615 0.564104
113 1 0.900011 0.43613 0.460315
213 2 0.68794 0.542837 0.534141
93 1 0.707289 0.638029 0.429433
89 1 0.702365 0.452626 0.647991
147 2 0.0740412 0.909129 0.438281
172 2 0.272472 0.920159 0.39641
47 1 0.315317 0.78619 0.371001
148 2 0.18618 0.845049 0.586697
28 1 0.183947 0.971689 0.501539
48 1 0.277739 0.749994 0.510317
23 1 0.0646711 0.744072 0.433049
24 1 0.0577571 0.876179 0.663629
192 2 0.450373 0.822972 0.411586
97 1 0.593445 0.845628 0.352804
198 2 0.566846 0.919489 0.552144
168 2 0.395 0.821873 0.607626
73 1 0.418723 0.926549 0.505774
193 2 0.543609 0.697362 0.473926
98 1 0.657386 0.817612 0.479854
69 1 0.462973 0.697501 0.654007
219 2 0.650007 0.728248 0.64189
222 2 0.693718 0.986516 0.37231
242 2 0.929316 0.794923 0.35191
248 2 0.952113 0.991728 0.613714
243 2 0.984526 0.778402 0.570875
3 1 0.936962 0.896295 0.487335
118 1 0.923226 0.671166 0.460529
123 1 0.794174 0.877488 0.485468
218 2 0.791644 0.715263 0.526793
99 1 0.696808 0.888382 0.641574
124 1 0.834842 0.832751 0.633582
130 2 0.164248 0.0787326 0.940047
31 1 0.279831 0.175111 0.967379
35 1 0.211092 0.247046 0.835329
129 2 0.0947644 0.158206 0.765604
134 2 0.174386 0.326909 0.672475
154 2 0.298965 0.131165 0.773348
9 1 0.0400536 0.259376 0.667127
10 1 0.0995942 0.314083 0.906231
29 1 0.194401 0.100578 0.672249
30 1 0.271445 0.0100826 0.863583
5 1 0.0247595 0.0949167 0.889451
155 2 0.379585 0.0581518 0.954124
180 2 0.396193 0.260708 0.963794
205 2 0.61305 0.21804 0.880432
159 2 0.341883 0.325864 0.787463
60 1 0.468611 0.257438 0.83683
179 2 0.512181 0.231645 0.697833
199 2 0.595252 0.0285442 0.744727
54 1 0.45978 0.102828 0.791283
55 1 0.521937 0.0999574 0.928101
76 1 0.663579 0.033593 0.936427
230 2 0.983664 0.225345 0.952254
210 2 0.784441 0.33161 0.976852
225 2 0.769907 0.121934 0.987404
229 2 0.92552 0.150814 0.741998
109 1 0.868321 0.291239 0.686796
110 1 0.809955 0.229173 0.833328
204 2 0.720706 0.190261 0.682871
80 1 0.706111 0.108363 0.816059
105 1 0.875317 0.0991274 0.87788
135 2 0.189865 0.425006 0.898164
140 2 0.299935 0.582983 0.90363
234 2 0.00468574 0.350949 0.777105
40 1 0.255121 0.442427 0.758302
139 2 0.190532 0.583117 0.758418
15 1 0.0912151 0.467405 0.722901
20 1 0.0973436 0.558727 0.913589
160 2 0.38805 0.422807 0.997314
165 2 0.499882 0.576875 0.930342
184 2 0.526696 0.395973 0.830985
85 1 0.653219 0.368897 0.891546
164 2 0.384039 0.511015 0.718288
65 1 0.40572 0.481091 0.869578
189 2 0.587853 0.525716 0.715618
45 1 0.383286 0.663665 0.785331
70 1 0.531505 0.652667 0.796303
91 1 0.620601 0.659738 0.999921
235 2 0.984541 0.440127 0.958679
240 2 0.970606 0.64352 0.981572
190 2 0.670244 0.664973 0.848621
215 2 0.789105 0.545963 0.997772
6 1 0.89932 0.336325 0.877005
209 2 0.719895 0.357153 0.761349
239 2 0.989415 0.568691 0.784269
11 1 0.897491 0.546625 0.89928
90 1 0.686088 0.50779 0.870808
114 1 0.920325 0.454962 0.681012
115 1 0.830108 0.449273 0.825365
214 2 0.789873 0.554253 0.70483
120 1 0.824856 0.640298 0.832883
150 2 0.237821 0.901229 0.966928
145 2 0.152282 0.716005 0.938312
149 2 0.172836 0.967712 0.746739
249 2 0.0209992 0.961924 0.827129
44 1 0.199723 0.698886 0.671585
49 1 0.286941 0.890854 0.686533
50 1 0.151648 0.843323 0.861905
144 2 0.0700514 0.760389 0.753707
169 2 0.278699 0.778027 0.784529
21 1 0.00920015 0.873702 0.977361
25 1 0.011974 0.756695 0.899694
195 2 0.568134 0.804256 0.966657
174 2 0.384451 0.945425 0.782884
26 1 0.422854 0.90002 0.92189
51 1 0.558928 0.946708 0.884528
74 1 0.484751 0.934377 0.677133
75 1 0.444034 0.765667 0.873268
194 2 0.539729 0.817299 0.753891
220 2 0.745928 0.922157 0.976188
224 2 0.801447 0.982568 0.76806
244 2 0.877411 0.791905 0.846662
1 1 0.877653 0.943648 0.899407
4 1 0.92509 0.886278 0.727549
16 1 0.798433 0.716232 0.989401
95 1 0.712416 0.802721 0.900201
100 1 0.67774 0.886578 0.787803
119 1 0.88584 0.681628 0.677261
125 1 0.761917 0.750925 0.740184
ITEM: TIMESTEP
300
ITEM: NUMBER OF ATOMS
250
ITEM: BOX BOUNDS pp pp pp
7.5749999999999995e-01 1.3057499999999999e+01
7.5749999999999995e-01 1.3057499999999999e+01
7.5749999999999995e-01 1.3057499999999999e+01
ITEM: ATOMS id type xs ys zs
32 1 0.199059 0.0941833 0.203946
126 2 0.108661 0.0887744 0.0980686
127 2 0.0921517 0.0394377 0.294692
131 2 0.181268 0.268288 0.0225206
132 2 0.158768 0.236044 0.243779
151 2 0.305106 0.131706 0.113306
152 2 0.290799 0.102366 0.310617
7 1 0.0157648 0.27782 0.253655
156 2 0.339726 0.299882 0.168797
57 1 0.447933 0.198346 0.256645
176 2 0.526774 0.174982 0.0862259
177 2 0.576888 0.13816 0.299456
200 2 0.593282 0.0161991 0.069863
52 1 0.435994 0.0700265 0.177961
77 1 0.640311 0.0230855 0.222127
83 1 0.663394 0.256881 0.326022
56 1 0.468247 0.315114 0.0876587
226 2 0.973579 0.165032 0.174434
250 2 0.959803 0.0232712 0.0142663
82 1 0.68189 0.266742 0.177037
107 1 0.88904 0.288838 0.326779
201 2 0.7413 0.119018 0.180393
202 2 0.813206 0.159395 0.317478
206 2 0.823507 0.328282 0.191517
102 1 0.953222 0.0849155 0.297346
81 1 0.671876 0.232429 0.0354082
106 1 0.890534 0.247476 0.0715058
101 1 0.855562 0.100018 0.0975569
231 2 0.0420952 0.356837 0.132521
37 1 0.201656 0.347024 0.139627
136 2 0.132951 0.5477 0.0699496
137 2 0.214471 0.447484 0.246372
12 1 0.0766003 0.499048 0.21006
42 1 0.280192 0.584273 0.259259
17 1 0.142626 0.643293 0.217578
36 1 0.24909 0.446424 0.0511726
41 1 0.249702 0.65078 0.0227421
181 2 0.53534 0.338377 0.222701
185 2 0.586272 0.370307 0.0239849
161 2 0.336789 0.577116 0.116342
162 2 0.405622 0.485378 0.299923
62 1 0.429555 0.447962 0.155582
186 2 0.553511 0.543016 0.140213
87 1 0.659145 0.429456 0.223417
67 1 0.431112 0.65194 0.223965
92 1 0.655159 0.638437 0.225502
61 1 0.628885 0.517217 0.0140062
236 2 0.936897 0.521941 0.166535
112 1 0.854255 0.443579 0.304682
211 2 0.764909 0.546518 0.20329
117 1 0.902506 0.645995 0.270873
86 1 0.741514 0.435853 0.0922812
111 1 0.905339 0.405195 0.0786405
116 1 0.891387 0.664255 0.104513
146 2 0.0887971 0.890044 0.100054
171 2 0.239106 0.946809 0.18115
27 1 0.134692 0.901194 0.29992
141 2 0.20343 0.740496 0.123413
142 2 0.176319 0.754979 0.324538
241 2 0.0184208 0.710729 0.175789
22 1 0.0224863 0.85157 0.232846
46 1 0.304658 0.847429 0.096582
175 2 0.418213 0.938189 0.0790553
196 2 0.527506 0.935059 0.25176
166 2 0.361018 0.788389 0.225269
170 2 0.364243 0.744746 0.000644596
72 1 0.371835 0.974702 0.283997
191 2 0.552276 0.732011 0.247717
66 1 0.480411 0.67737 0.0732268
71 1 0.501336 0.827183 0.14489
96 1 0.628113 0.856369 0.0936908
246 2 0.917617 0.966993 0.220792
221 2 0.729763 0.906831 0.187802
245 2 0.892406 0.824108 0.0693553
2 1 0.80848 0.888758 0.327883
122 1 0.824176 0.7643 0.214607
216 2 0.700854 0.7205 0.111334
217 2 0.725351 0.74166 0.329264
121 1 0.834614 0.957709 0.100271
157 2 0.326922 0.301342 0.361703
227 2 0.00558337 0.192381 0.386632
33 1 0.16979 0.0996268 0.421753
128 2 0.0878635 0.0788829 0.568176
133 2 0.160913 0.262996 0.474524
153 2 0.308159 0.141754 0.501529
173 2 0.306884 0.0087599 0.592305
8 1 0.0311398 0.216856 0.527177
34 1 0.237369 0.22198 0.593419
197 2 0.453334 0.0272653 0.412011
58 1 0.39137 0.165328 0.390826
178 2 0.492793 0.211127 0.493839
53 1 0.446684 0.0819999 0.626416
78 1 0.586108 0.0849928 0.439064
59 1 0.3585 0.224236 0.663859
84 1 0.60652 0.213458 0.589543
79 1 0.599152 0.0689715 0.584831
247 2 0.906639 0.0118572 0.414563
228 2 0.886559 0.181974 0.544
108 1 0.828301 0.300765 0.453088
203 2 0.695463 0.207774 0.476032
223 2 0.750225 0.0163752 0.568162
103 1 0.785225 0.0919341 0.444561
104 1 0.840089 0.0844493 0.652501
232 2 0.0312451 0.398363 0.33713
237 2 0.0337729 0.599219 0.351706
233 2 0.00968536 0.365792 0.549373
38 1 0.186755 0.346191 0.357137
138 2 0.205214 0.453978 0.451183
13 1 0.0449673 0.488465 0.458328
43 1 0.332546 0.529789 0.505895
143 2 0.150756 0.652947 0.518476
18 1 0.192076 0.592635 0.377093
39 1 0.257245 0.45139 0.606813
14 1 0.116299 0.510419 0.59016
19 1 0.0471433 0.646822 0.654026
182 2 0.523747 0.347004 0.394748
187 2 0.606332 0.544302 0.339894
167 2 0.342705 0.644488 0.404827
158 2 0.368266 0.342308 0.56784
183 2 0.613073 0.357037 0.583985
163 2 0.33362 0.636094 0.609709
63 1 0.39222 0.411493 0.428119
188 2 0.484717 0.512259 0.521551
88 1 0.609191 0.444165 0.454538
68 1 0.475014 0.608945 0.360087
64 1 0.483396 0.41666 0.657029
94 1 0.56374 0.620324 0.59238
207 2 0.727034 0.388399 0.379814
212 2 0.830136 0.570101 0.391374
208 2 0.807552 0.387712 0.577562
238 2 0.943324 0.56615 0.564104
113 1 0.900011 0.43613 0.460315
213 2 0.68794 0.542837 0.534141
93 1 0.707289 0.638029 0.429433
89 1 0.702365 0.452626 0.647991
147 2 0.0740412 0.909129 0.438281
172 2 0.272472 0.920159 0.39641
47 1 0.315317 0.78619 0.371001
148 2 0.18618 0.845049 0.586697
28 1 0.183947 0.971689 0.501539
48 1 0.277739 0.749994 0.510317