ITEM: TIMESTEP
0
ITEM: NUMBER OF ATOMS
216
ITEM: BOX BOUNDS pp pp pp
0.0000000000000000e+00 1.5500000000000000e+01
0.0000000000000000e+00 1.5500000000000000e+01
0.0000000000000000e+00 1.2500000000000000e+01
ITEM: ATOMS id type xs ys zs
1 2 0.00020967 0.158844 0.0816333
8 2 0.166876 0.0309447 0.2483
55 1 0.166876 0.142455 0.0816333
70 1 0.0836768 0.214575 0.2483
205 1 0.000209671 0.0608541 0.2483
37 2 0.333543 0.158844 0.0816333
98 1 0.41701 0.214575 0.2483
117 1 0.250076 0.214575 0.2483
125 1 0.333543 0.0608541 0.2483
27 2 0.50021 0.0309447 0.2483
39 2 0.666876 0.158844 0.0816333
99 1 0.583409 0.214575 0.2483
115 1 0.666876 0.0608541 0.2483
145 1 0.50021 0.142455 0.0816333
9 2 0.833543 0.0309447 0.2483
63 1 0.916742 0.214575 0.2483
67 1 0.833543 0.142455 0.0816333
124 1 0.750344 0.214575 0.2483
21 2 0.166876 0.493605 0.0816333
45 2 0.000209671 0.373147 0.2483
91 1 0.000209674 0.476777 0.0816333
123 1 0.0835352 0.319942 0.0816333
169 1 0.166876 0.389975 0.2483
26 2 0.333543 0.373147 0.2483
149 1 0.416869 0.319942 0.0816333
163 1 0.333543 0.476777 0.0816333
173 1 0.250217 0.319942 0.0816333
25 2 0.666876 0.373147 0.2483
41 2 0.50021 0.493605 0.0816333
97 1 0.50021 0.389975 0.2483
147 1 0.583551 0.319942 0.0816333
175 1 0.666876 0.476777 0.0816333
19 2 0.833543 0.493605 0.0816333
111 1 0.916884 0.319942 0.0816333
167 1 0.750202 0.319942 0.0816333
179 1 0.833543 0.389975 0.2483
43 2 0.166876 0.707908 0.2483
93 1 0.0834092 0.652176 0.0816333
151 1 0.00020967 0.724297 0.2483
153 1 0.0835508 0.54681 0.2483
61 1 0.333543 0.724297 0.2483
65 1 0.416742 0.652176 0.0816333
113 1 0.250344 0.652176 0.0816333
126 1 0.416884 0.54681 0.2483
178 1 0.250202 0.54681 0.2483
7 2 0.50021 0.707908 0.2483
59 1 0.583677 0.652176 0.0816333
71 1 0.666876 0.724297 0.2483
116 1 0.583535 0.54681 0.2483
119 1 0.750076 0.652176 0.0816333
171 1 0.750217 0.54681 0.2483
44 2 0.833543 0.707908 0.2483
95 1 0.91701 0.652176 0.0816333
152 1 0.916869 0.54681 0.2483
201 1 0.0814624 0.988742 0.0816333
23 2 0.000209668 0.835807 0.0816333
121 1 0.166876 0.805898 0.0816333
170 1 0.0856236 0.87801 0.2483
72 1 0.248129 0.87801 0.2483
69 1 0.25229 0.988742 0.0816333
165 1 0.414796 0.988742 0.0816333
3 2 0.333543 0.835807 0.0816333
206 1 0.418957 0.87801 0.2483
177 1 0.585624 0.988742 0.0816333
57 1 0.748129 0.988742 0.0816333
5 2 0.666876 0.835807 0.0816333
199 1 0.50021 0.805898 0.0816333
207 1 0.581462 0.87801 0.2483
203 1 0.918957 0.988742 0.0816333
62 1 0.75229 0.87801 0.2483
109 1 0.833543 0.805898 0.0816333
180 1 0.914796 0.87801 0.2483
10 2 0.00020967 0.158844 0.414967
13 2 0.166876 0.0309447 0.581633
73 1 0.166876 0.142455 0.414967
82 1 0.0836768 0.214575 0.581633
209 1 0.00020967 0.0608541 0.581633
46 2 0.333543 0.158844 0.414967
103 1 0.41701 0.214575 0.581633
132 1 0.250076 0.214575 0.581633
138 1 0.333543 0.0608541 0.581633
33 2 0.50021 0.0309447 0.581633
48 2 0.666876 0.158844 0.414967
105 1 0.583409 0.214575 0.581633
128 1 0.666876 0.0608541 0.581633
154 1 0.50021 0.142455 0.414967
15 2 0.833543 0.0309447 0.581633
78 1 0.916742 0.214575 0.581633
85 1 0.833543 0.142455 0.414967
136 1 0.750344 0.214575 0.581633
30 2 0.166876 0.493605 0.414967
51 2 0.000209671 0.373147 0.581633
100 1 0.000209674 0.476777 0.414967
141 1 0.0835352 0.319942 0.414967
182 1 0.166876 0.389975 0.581633
31 2 0.333543 0.373147 0.581633
158 1 0.416869 0.319942 0.414967
181 1 0.333543 0.476777 0.414967
191 1 0.250217 0.319942 0.414967
29 2 0.666876 0.373147 0.581633
50 2 0.50021 0.493605 0.414967
101 1 0.50021 0.389975 0.581633
156 1 0.583551 0.319942 0.414967
193 1 0.666876 0.476777 0.414967
28 2 0.833543 0.493605 0.414967
129 1 0.916884 0.319942 0.414967
185 1 0.750202 0.319942 0.414967
192 1 0.833543 0.389975 0.581633
47 2 0.166876 0.707908 0.581633
102 1 0.0834092 0.652176 0.414967
155 1 0.000209669 0.724297 0.581633
159 1 0.0835508 0.54681 0.581633
74 1 0.333543 0.724297 0.581633
83 1 0.416742 0.652176 0.414967
131 1 0.250344 0.652176 0.414967
140 1 0.416884 0.54681 0.581633
190 1 0.250202 0.54681 0.581633
11 2 0.50021 0.707908 0.581633
77 1 0.583677 0.652176 0.414967
84 1 0.666876 0.724297 0.581633
130 1 0.583535 0.54681 0.581633
137 1 0.750076 0.652176 0.414967
186 1 0.750217 0.54681 0.581633
49 2 0.833543 0.707908 0.581633
104 1 0.91701 0.652176 0.414967
157 1 0.916869 0.54681 0.581633
210 1 0.0814624 0.988742 0.414967
32 2 0.000209668 0.835807 0.414967
139 1 0.166876 0.805898 0.414967
184 1 0.0856236 0.87801 0.581633
86 1 0.248129 0.87801 0.581633
87 1 0.25229 0.988742 0.414967
183 1 0.414796 0.988742 0.414967
12 2 0.333543 0.835807 0.414967
211 1 0.418957 0.87801 0.581633
195 1 0.585624 0.988742 0.414967
75 1 0.748129 0.988742 0.414967
14 2 0.666876 0.835807 0.414967
208 1 0.50021 0.805898 0.414967
213 1 0.581462 0.87801 0.581633
212 1 0.918957 0.988742 0.414967
76 1 0.75229 0.87801 0.581633
127 1 0.833543 0.805898 0.414967
194 1 0.914796 0.87801 0.581633
4 2 0.166876 0.0309447 0.914967
16 2 0.000209669 0.158844 0.7483
64 1 0.0836768 0.214575 0.914967
79 1 0.166876 0.142455 0.7483
200 1 0.00020967 0.0608541 0.914967
52 2 0.333543 0.158844 0.7483
94 1 0.41701 0.214575 0.914967
114 1 0.250076 0.214575 0.914967
120 1 0.333543 0.0608541 0.914967
24 2 0.50021 0.0309447 0.914967
53 2 0.666876 0.158844 0.7483
96 1 0.583409 0.214575 0.914967
110 1 0.666876 0.0608541 0.914967
160 1 0.50021 0.142455 0.7483
6 2 0.833543 0.0309447 0.914967
60 1 0.916742 0.214575 0.914967
89 1 0.833543 0.142455 0.7483
118 1 0.750344 0.214575 0.914967
35 2 0.166876 0.493605 0.7483
42 2 0.000209671 0.373147 0.914967
106 1 0.000209673 0.476777 0.7483
144 1 0.0835352 0.319942 0.7483
164 1 0.166876 0.389975 0.914967
22 2 0.333543 0.373147 0.914967
162 1 0.416869 0.319942 0.7483
187 1 0.333543 0.476777 0.7483
196 1 0.250217 0.319942 0.7483
20 2 0.666876 0.373147 0.914967
54 2 0.50021 0.493605 0.7483
92 1 0.50021 0.389975 0.914967
161 1 0.583551 0.319942 0.7483
197 1 0.666876 0.476777 0.7483
34 2 0.833543 0.493605 0.7483
134 1 0.916884 0.319942 0.7483
174 1 0.833543 0.389975 0.914967
189 1 0.750202 0.319942 0.7483
38 2 0.166876 0.707908 0.914967
107 1 0.0834092 0.652176 0.7483
146 1 0.000209669 0.724297 0.914967
150 1 0.0835508 0.54681 0.914967
56 1 0.333543 0.724297 0.914967
88 1 0.416742 0.652176 0.7483
122 1 0.416884 0.54681 0.914967
135 1 0.250344 0.652176 0.7483
172 1 0.250202 0.54681 0.914967
2 2 0.50021 0.707908 0.914967
66 1 0.666876 0.724297 0.914967
81 1 0.583677 0.652176 0.7483
112 1 0.583535 0.54681 0.914967
142 1 0.750076 0.652176 0.7483
168 1 0.750217 0.54681 0.914967
40 2 0.833543 0.707908 0.914967
108 1 0.91701 0.652176 0.7483
148 1 0.916869 0.54681 0.914967
215 1 0.0814624 0.988742 0.7483
36 2 0.000209668 0.835807 0.7483
143 1 0.166876 0.805898 0.7483
166 1 0.0856236 0.87801 0.914967
68 1 0.248129 0.87801 0.914967
90 1 0.25229 0.988742 0.7483
188 1 0.414796 0.988742 0.7483
17 2 0.333543 0.835807 0.7483
202 1 0.418957 0.87801 0.914967
198 1 0.585624 0.988742 0.7483
80 1 0.748129 0.988742 0.7483
18 2 0.666876 0.835807 0.7483
204 1 0.581462 0.87801 0.914967
214 1 0.50021 0.805898 0.7483
216 1 0.918957 0.988742 0.7483
58 1 0.75229 0.87801 0.914967
133 1 0.833543 0.805898 0.7483
176 1 0.914796 0.87801 0.914967
ITEM: TIMESTEP
100
ITEM: NUMBER OF ATOMS
216
ITEM: BOX BOUNDS pp pp pp
0.0000000000000000e+00 1.5500000000000000e+01
0.0000000000000000e+00 1.5500000000000000e+01
0.0000000000000000e+00 1.2500000000000000e+01
ITEM: ATOMS id type xs ys zs
1 2 0.000209669 0.158844 0.0816333
8 2 0.166876 0.0309447 0.2483
55 1 0.166876 0.142455 0.0816333
70 1 0.0836768 0.214575 0.2483
205 1 0.00020967 0.0608541 0.2483
37 2 0.333543 0.158844 0.0816333
98 1 0.41701 0.214575 0.2483
117 1 0.250076 0.214575 0.2483
125 1 0.333543 0.0608541 0.2483
27 2 0.50021 0.0309447 0.2483
39 2 0.666876 0.158844 0.0816333
99 1 0.583409 0.214575 0.2483
115 1 0.666876 0.0608541 0.2483
145 1 0.50021 0.142455 0.0816333
9 2 0.833543 0.0309447 0.2483
63 1 0.916742 0.214575 0.2483
67 1 0.833543 0.142455 0.0816333
124 1 0.750344 0.214575 0.2483
21 2 0.166876 0.493605 0.0816333
45 2 0.000209671 0.373147 0.2483
91 1 0.000209673 0.476777 0.0816333
123 1 0.0835352 0.319942 0.0816333
169 1 0.166876 0.389975 0.2483
26 2 0.333543 0.373147 0.2483
149 1 0.416869 0.319942 0.0816333
163 1 0.333543 0.476777 0.0816333
173 1 0.250217 0.319942 0.0816333
25 2 0.666876 0.373147 0.2483
41 2 0.50021 0.493605 0.0816333
97 1 0.50021 0.389975 0.2483
147 1 0.583551 0.319942 0.0816333
175 1 0.666876 0.476777 0.0816333
19 2 0.833543 0.493605 0.0816333
111 1 0.916884 0.319942 0.0816333
167 1 0.750202 0.319942 0.0816333
179 1 0.833543 0.389975 0.2483
43 2 0.166876 0.707908 0.2483
93 1 0.0834092 0.652176 0.0816333
151 1 0.00020967 0.724297 0.2483
153 1 0.0835508 0.54681 0.2483
61 1 0.333543 0.724297 0.2483
65 1 0.416742 0.652176 0.0816333
113 1 0.250344 0.652176 0.0816333
126 1 0.416884 0.54681 0.2483
178 1 0.250202 0.54681 0.2483
7 2 0.50021 0.707908 0.2483
59 1 0.583677 0.652176 0.0816333
71 1 0.666876 0.724297 0.2483
116 1 0.583535 0.54681 0.2483
119 1 0.750076 0.652176 0.0816333
171 1 0.750217 0.54681 0.2483
44 2 0.833543 0.707908 0.2483
95 1 0.91701 0.652176 0.0816333
152 1 0.916869 0.54681 0.2483
201 1 0.0814624 0.988742 0.0816333
23 2 0.000209669 0.835807 0.0816333
121 1 0.166876 0.805898 0.0816333
170 1 0.0856236 0.87801 0.2483
72 1 0.248129 0.87801 0.2483
69 1 0.25229 0.988742 0.0816333
165 1 0.414796 0.988742 0.0816333
3 2 0.333543 0.835807 0.0816333
206 1 0.418957 0.87801 0.2483
177 1 0.585624 0.988742 0.0816333
57 1 0.748129 0.988742 0.0816333
5 2 0.666876 0.835807 0.0816333
199 1 0.50021 0.805898 0.0816333
207 1 0.581462 0.87801 0.2483
203 1 0.918957 0.988742 0.0816333
62 1 0.75229 0.87801 0.2483
109 1 0.833543 0.805898 0.0816333
180 1 0.914796 0.87801 0.2483
10 2 0.000209669 0.158844 0.414967
13 2 0.166876 0.0309447 0.581633
73 1 0.166876 0.142455 0.414967
82 1 0.0836768 0.214575 0.581633
209 1 0.00020967 0.0608541 0.581633
46 2 0.333543 0.158844 0.414967
103 1 0.41701 0.214575 0.581633
132 1 0.250076 0.214575 0.581633
138 1 0.333543 0.0608541 0.581633
33 2 0.50021 0.0309447 0.581633
48 2 0.666876 0.158844 0.414967
105 1 0.583409 0.214575 0.581633
128 1 0.666876 0.0608541 0.581633
154 1 0.50021 0.142455 0.414967
15 2 0.833543 0.0309447 0.581633
78 1 0.916742 0.214575 0.581633
85 1 0.833543 0.142455 0.414967
136 1 0.750344 0.214575 0.581633
30 2 0.166876 0.493605 0.414967
51 2 0.000209671 0.373147 0.581633
100 1 0.000209673 0.476777 0.414967
141 1 0.0835352 0.319942 0.414967
182 1 0.166876 0.389975 0.581633
31 2 0.333543 0.373147 0.581633
158 1 0.416869 0.319942 0.414967
181 1 0.333543 0.476777 0.414967
191 1 0.250217 0.319942 0.414967
29 2 0.666876 0.373147 0.581633
50 2 0.50021 0.493605 0.414967
101 1 0.50021 0.389975 0.581633
156 1 0.583551 0.319942 0.414967
193 1 0.666876 0.476777 0.414967
28 2 0.833543 0.493605 0.414967
129 1 0.916884 0.319942 0.414967
185 1 0.750202 0.319942 0.414967
192 1 0.833543 0.389975 0.581633
47 2 0.166876 0.707908 0.581633
102 1 0.0834092 0.652176 0.414967
155 1 0.000209669 0.724297 0.581633
159 1 0.0835508 0.54681 0.581633
74 1 0.333543 0.724297 0.581633
83 1 0.416742 0.652176 0.414967
131 1 0.250344 0.652176 0.414967
140 1 0.416884 0.54681 0.581633
190 1 0.250202 0.54681 0.581633
11 2 0.50021 0.707908 0.581633
77 1 0.583677 0.652176 0.414967
84 1 0.666876 0.724297 0.581633
130 1 0.583535 0.54681 0.581633
137 1 0.750076 0.652176 0.414967
186 1 0.750217 0.54681 0.581633
49 2 0.833543 0.707908 0.581633
104 1 0.91701 0.652176 0.414967
157 1 0.916869 0.54681 0.581633
210 1 0.0814624 0.988742 0.414967
32 2 0.000209669 0.835807 0.414967
139 1 0.166876 0.805898 0.414967
184 1 0.0856236 0.87801 0.581633
86 1 0.248129 0.87801 0.581633
87 1 0.25229 0.988742 0.414967
183 1 0.414796 0.988742 0.414967
12 2 0.333543 0.835807 0.414967
211 1 0.418957 0.87801 0.581633
195 1 0.585624 0.988742 0.414967
75 1 0.748129 0.988742 0.414967
14 2 0.666876 0.835807 0.414967
208 1 0.50021 0.805898 0.414967
213 1 0.581462 0.87801 0.581633
212 1 0.918957 0.988742 0.414967
76 1 0.75229 0.87801 0.581633
127 1 0.833543 0.805898 0.414967
194 1 0.914796 0.87801 0.581633
4 2 0.166876 0.0309447 0.914967
16 2 0.000209669 0.158844 0.7483
64 1 0.0836768 0.214575 0.914967
79 1 0.166876 0.142455 0.7483
200 1 0.00020967 0.0608541 0.914967
52 2 0.333543 0.158844 0.7483
94 1 0.41701 0.214575 0.914967
114 1 0.250076 0.214575 0.914967
120 1 0.333543 0.0608541 0.914967
24 2 0.50021 0.0309447 0.914967
53 2 0.666876 0.158844 0.7483
96 1 0.583409 0.214575 0.914967
110 1 0.666876 0.0608541 0.914967
160 1 0.50021 0.142455 0.7483
6 2 0.833543 0.0309447 0.914967
60 1 0.916742 0.214575 0.914967
89 1 0.833543 0.142455 0.7483
118 1 0.750344 0.214575 0.914967
35 2 0.166876 0.493605 0.7483
42 2 0.000209671 0.373147 0.914967
106 1 0.000209673 0.476777 0.7483
144 1 0.0835352 0.319942 0.7483
164 1 0.166876 0.389975 0.914967
22 2 0.333543 0.373147 0.914967
162 1 0.416869 0.319942 0.7483
187 1 0.333543 0.476777 0.7483
196 1 0.250217 0.319942 0.7483
20 2 0.666876 0.373147 0.914967
54 2 0.50021 0.493605 0.7483
92 1 0.50021 0.389975 0.914967
161 1 0.583551 0.319942 0.7483
197 1 0.666876 0.476777 0.7483
34 2 0.833543 0.493605 0.7483
134 1 0.916884 0.319942 0.7483
174 1 0.833543 0.389975 0.914967
189 1 0.750202 0.319942 0.7483
38 2 0.166876 0.707908 0.914967
107 1 0.0834092 0.652176 0.7483
146 1 0.000209669 0.724297 0.914967
150 1 0.0835508 0.54681 0.914967
56 1 0.333543 0.724297 0.914967
88 1 0.416742 0.652176 0.7483
122 1 0.416884 0.54681 0.914967
135 1 0.250344 0.652176 0.7483
172 1 0.250202 0.54681 0.914967
2 2 0.50021 0.707908 0.914967
66 1 0.666876 0.724297 0.914967
81 1 0.583677 0.652176 0.7483
112 1 0.583535 0.54681 0.914967
142 1 0.750076 0.652176 0.7483
168 1 0.750217 0.54681 0.914967
40 2 0.833543 0.707908 0.914967
108 1 0.91701 0.652176 0.7483
148 1 0.916869 0.54681 0.914967
215 1 0.0814624 0.988742 0.7483
36 2 0.000209669 0.835807 0.7483
143 1 0.166876 0.805898 0.7483
166 1 0.0856236 0.87801 0.914967
68 1 0.248129 0.87801 0.914967
90 1 0.25229 0.988742 0.7483
188 1 0.414796 0.988742 0.7483
17 2 0.333543 0.835807 0.7483
202 1 0.418957 0.87801 0.914967
198 1 0.585624 0.988742 0.7483
80 1 0.748129 0.988742 0.7483
18 2 0.666876 0.835807 0.7483
204 1 0.581462 0.87801 0.914967
214 1 0.50021 0.805898 0.7483
216 1 0.918957 0.988742 0.7483
58 1 0.75229 0.87801 0.914967
133 1 0.833543 0.805898 0.7483
176 1 0.914796 0.87801 0.914967
ITEM: TIMESTEP
200
ITEM: NUMBER OF ATOMS
216
ITEM: BOX BOUNDS pp pp pp
0.0000000000000000e+00 1.5500000000000000e+01
0.0000000000000000e+00 1.5500000000000000e+01
0.0000000000000000e+00 1.2500000000000000e+01
ITEM: ATOMS id type xs ys zs
1 2 0.00020967 0.158844 0.0816333
8 2 0.166876 0.0309447 0.2483
55 1 0.166876 0.142455 0.0816333
70 1 0.0836768 0.214575 0.2483
205 1 0.00020967 0.0608541 0.2483
37 2 0.333543 0.158844 0.0816333
98 1 0.41701 0.214575 0.2483
117 1 0.250076 0.214575 0.2483
125 1 0.333543 0.0608541 0.2483
27 2 0.50021 0.0309447 0.2483
39 2 0.666876 0.158844 0.0816333
99 1 0.583409 0.214575 0.2483
115 1 0.666876 0.0608541 0.2483
145 1 0.50021 0.142455 0.0816333
9 2 0.833543 0.0309447 0.2483
63 1 0.916742 0.214575 0.2483
67 1 0.833543 0.142455 0.0816333
124 1 0.750344 0.214575 0.2483
21 2 0.166876 0.493605 0.0816333
45 2 0.00020967 0.373147 0.2483
91 1 0.000209671 0.476777 0.0816333
123 1 0.0835352 0.319942 0.0816333
169 1 0.166876 0.389975 0.2483
26 2 0.333543 0.373147 0.2483
149 1 0.416869 0.319942 0.0816333
163 1 0.333543 0.476777 0.0816333
173 1 0.250217 0.319942 0.0816333
25 2 0.666876 0.373147 0.2483
41 2 0.50021 0.493605 0.0816333
97 1 0.50021 0.389975 0.2483
147 1 0.583551 0.319942 0.0816333
175 1 0.666876 0.476777 0.0816333
19 2 0.833543 0.493605 0.0816333
111 1 0.916884 0.319942 0.0816333
167 1 0.750202 0.319942 0.0816333
179 1 0.833543 0.389975 0.2483
43 2 0.166876 0.707908 0.2483
93 1 0.0834092 0.652176 0.0816333
151 1 0.00020967 0.724297 0.2483
153 1 0.0835508 0.54681 0.2483
61 1 0.333543 0.724297 0.2483
65 1 0.416742 0.652176 0.0816333
113 1 0.250344 0.652176 0.0816333
126 1 0.416884 0.54681 0.2483
178 1 0.250202 0.54681 0.2483
7 2 0.50021 0.707908 0.2483
59 1 0.583677 0.652176 0.0816333
71 1 0.666876 0.724297 0.2483
116 1 0.583535 0.54681 0.2483
119 1 0.750076 0.652176 0.0816333
171 1 0.750217 0.54681 0.2483
44 2 0.833543 0.707908 0.2483
95 1 0.91701 0.652176 0.0816333
152 1 0.916869 0.54681 0.2483
201 1 0.0814624 0.988742 0.0816333
23 2 0.000209671 0.835807 0.0816333
121 1 0.166876 0.805898 0.0816333
170 1 0.0856236 0.87801 0.2483
72 1 0.248129 0.87801 0.2483
69 1 0.25229 0.988742 0.0816333
165 1 0.414796 0.988742 0.0816333
3 2 0.333543 0.835807 0.0816333
206 1 0.418957 0.87801 0.2483
177 1 0.585624 0.988742 0.0816333
57 1 0.748129 0.988742 0.0816333
5 2 0.666876 0.835807 0.0816333
199 1 0.50021 0.805898 0.0816333
207 1 0.581462 0.87801 0.2483
203 1 0.918957 0.988742 0.0816333
62 1 0.75229 0.87801 0.2483
109 1 0.833543 0.805898 0.0816333
180 1 0.914796 0.87801 0.2483
10 2 0.00020967 0.158844 0.414967
13 2 0.166876 0.0309447 0.581633
73 1 0.166876 0.142455 0.414967
82 1 0.0836768 0.214575 0.581633
209 1 0.00020967 0.0608541 0.581633
46 2 0.333543 0.158844 0.414967
103 1 0.41701 0.214575 0.581633
132 1 0.250076 0.214575 0.581633
138 1 0.333543 0.0608541 0.581633
33 2 0.50021 0.0309447 0.581633
48 2 0.666876 0.158844 0.414967
105 1 0.583409 0.214575 0.581633
128 1 0.666876 0.0608541 0.581633
154 1 0.50021 0.142455 0.414967
15 2 0.833543 0.0309447 0.581633
78 1 0.916742 0.214575 0.581633
85 1 0.833543 0.142455 0.414967
136 1 0.750344 0.214575 0.581633
30 2 0.166876 0.493605 0.414967
51 2 0.00020967 0.373147 0.581633
100 1 0.000209671 0.476777 0.414967
141 1 0.0835352 0.319942 0.414967
182 1 0.166876 0.389975 0.581633
31 2 0.333543 0.373147 0.581633
158 1 0.416869 0.319942 0.414967
181 1 0.333543 0.476777 0.414967
191 1 0.250217 0.319942 0.414967
29 2 0.666876 0.373147 0.581633
50 2 0.50021 0.493605 0.414967
101 1 0.50021 0.389975 0.581633
156 1 0.583551 0.319942 0.414967
193 1 0.666876 0.476777 0.414967
28 2 0.833543 0.493605 0.414967
129 1 0.916884 0.319942 0.414967
185 1 0.750202 0.319942 0.414967
192 1 0.833543 0.389975 0.581633
47 2 0.166876 0.707908 0.581633
102 1 0.0834092 0.652176 0.414967
155 1 0.00020967 0.724297 0.581633
159 1 0.0835508 0.54681 0.581633
74 1 0.333543 0.724297 0.581633
83 1 0.416742 0.652176 0.414967
131 1 0.250344 0.652176 0.414967
140 1 0.416884 0.54681 0.581633
190 1 0.250202 0.54681 0.581633
11 2 0.50021 0.707908 0.581633
77 1 0.583677 0.652176 0.414967
84 1 0.666876 0.724297 0.581633
130 1 0.583535 0.54681 0.581633
137 1 0.750076 0.652176 0.414967
186 1 0.750217 0.54681 0.581633
49 2 0.833543 0.707908 0.581633
104 1 0.91701 0.652176 0.414967
157 1 0.916869 0.54681 0.581633
210 1 0.0814624 0.988742 0.414967
32 2 0.000209671 0.835807 0.414967
139 1 0.166876 0.805898 0.414967
184 1 0.0856236 0.87801 0.581633
86 1 0.248129 0.87801 0.581633
87 1 0.25229 0.988742 0.414967
183 1 0.414796 0.988742 0.414967
12 2 0.333543 0.835807 0.414967
211 1 0.418957 0.87801 0.581633
195 1 0.585624 0.988742 0.414967
75 1 0.748129 0.988742 0.414967
14 2 0.666876 0.835807 0.414967
208 1 0.50021 0.805898 0.414967
213 1 0.581462 0.87801 0.581633
212 1 0.918957 0.988742 0.414967
76 1 0.75229 0.87801 0.581633
127 1 0.833543 0.805898 0.414967
194 1 0.914796 0.87801 0.581633
4 2 0.166876 0.0309447 0.914967
16 2 0.00020967 0.158844 0.7483
64 1 0.0836768 0.214575 0.914967
79 1 0.166876 0.142455 0.7483
200 1 0.00020967 0.0608541 0.914967
52 2 0.333543 0.158844 0.7483
94 1 0.41701 0.214575 0.914967
114 1 0.250076 0.214575 0.914967
120 1 0.333543 0.0608541 0.914967
24 2 0.50021 0.0309447 0.914967
53 2 0.666876 0.158844 0.7483
96 1 0.583409 0.214575 0.914967
110 1 0.666876 0.0608541 0.914967
160 1 0.50021 0.142455 0.7483
6 2 0.833543 0.0309447 0.914967
60 1 0.916742 0.214575 0.914967
89 1 0.833543 0.142455 0.7483
118 1 0.750344 0.214575 0.914967
35 2 0.166876 0.493605 0.7483
42 2 0.00020967 0.373147 0.914967
106 1 0.000209671 0.476777 0.7483
144 1 0.0835352 0.319942 0.7483
164 1 0.166876 0.389975 0.914967
22 2 0.333543 0.373147 0.914967
162 1 0.416869 0.319942 0.7483
187 1 0.333543 0.476777 0.7483
196 1 0.250217 0.319942 0.7483
20 2 0.666876 0.373147 0.914967
54 2 0.50021 0.493605 0.7483
92 1 0.50021 0.389975 0.914967
161 1 0.583551 0.319942 0.7483
197 1 0.666876 0.476777 0.7483
34 2 0.833543 0.493605 0.7483
134 1 0.916884 0.319942 0.7483
174 1 0.833543 0.389975 0.914967
189 1 0.750202 0.319942 0.7483
38 2 0.166876 0.707908 0.914967
107 1 0.0834092 0.652176 0.7483
146 1 0.00020967 0.724297 0.914967
150 1 0.0835508 0.54681 0.914967
56 1 0.333543 0.724297 0.914967
88 1 0.416742 0.652176 0.7483
122 1 0.416884 0.54681 0.914967
135 1 0.250344 0.652176 0.7483
172 1 0.250202 0.54681 0.914967
2 2 0.50021 0.707908 0.914967
66 1 0.666876 0.724297 0.914967
81 1 0.583677 0.652176 0.7483
112 1 0.583535 0.54681 0.914967
142 1 0.750076 0.652176 0.7483
168 1 0.750217 0.54681 0.914967
40 2 0.833543 0.707908 0.914967
108 1 0.91701 0.652176 0.7483
148 1 0.916869 0.54681 0.914967
215 1 0.0814624 0.988742 0.7483
36 2 0.000209671 0.835807 0.7483
143 1 0.166876 0.805898 0.7483
166 1 0.0856236 0.87801 0.914967
68 1 0.248129 0.87801 0.914967
90 1 0.25229 0.988742 0.7483
188 1 0.414796 0.988742 0.7483
17 2 0.333543 0.835807 0.7483
202 1 0.418957 0.87801 0.914967
198 1 0.585624 0.988742 0.7483
80 1 0.748129 0.988742 0.7483
18 2 0.666876 0.835807 0.7483
204 1 0.581462 0.87801 0.914967
214 1 0.50021 0.805898 0.7483
216 1 0.918957 0.988742 0.7483
58 1 0.75229 0.87801 0.914967
133 1 0.833543 0.805898 0.7483
176 1 0.914796 0.87801 0.914967
ITEM: TIMESTEP
300
ITEM: NUMBER OF ATOMS
216
ITEM: BOX BOUNDS pp pp pp
0.0000000000000000e+00 1.5500000000000000e+01
0.0000000000000000e+00 1.5500000000000000e+01
0.0000000000000000e+00 1.2500000000000000e+01
ITEM: ATOMS id type xs ys zs
1 2 0.000209671 0.158844 0.0816333
8 2 0.166876 0.0309447 0.2483
55 1 0.166876 0.142455 0.0816333
70 1 0.0836768 0.214575 0.2483
205 1 0.000209669 0.0608541 0.2483
37 2 0.333543 0.158844 0.0816333
98 1 0.41701 0.214575 0.2483
117 1 0.250076 0.214575 0.2483
125 1 0.333543 0.0608541 0.2483
27 2 0.50021 0.0309447 0.2483
39 2 0.666876 0.158844 0.0816333
99 1 0.583409 0.214575 0.2483
115 1 0.666876 0.0608541 0.2483
145 1 0.50021 0.142455 0.0816333
9 2 0.833543 0.0309447 0.2483
63 1 0.916742 0.214575 0.2483
67 1 0.833543 0.142455 0.0816333
124 1 0.750344 0.214575 0.2483
21 2 0.166876 0.493605 0.0816333
45 2 0.000209669 0.373147 0.2483
91 1 0.000209668 0.476777 0.0816333
123 1 0.0835352 0.319942 0.0816333
169 1 0.166876 0.389975 0.2483
26 2 0.333543 0.373147 0.2483
149 1 0.416869 0.319942 0.0816333
163 1 0.333543 0.476777 0.0816333
173 1 0.250217 0.319942 0.0816333
25 2 0.666876 0.373147 0.2483
41 2 0.50021 0.493605 0.0816333
97 1 0.50021 0.389975 0.2483
147 1 0.583551 0.319942 0.0816333
175 1 0.666876 0.476777 0.0816333
19 2 0.833543 0.493605 0.0816333
111 1 0.916884 0.319942 0.0816333
167 1 0.750202 0.319942 0.0816333
179 1 0.833543 0.389975 0.2483
43 2 0.166876 0.707908 0.2483
93 1 0.0834092 0.652176 0.0816333
151 1 0.000209672 0.724297 0.2483
153 1 0.0835508 0.54681 0.2483
61 1 0.333543 0.724297 0.2483
65 1 0.416742 0.652176 0.0816333
113 1 0.250344 0.652176 0.0816333
126 1 0.416884 0.54681 0.2483
178 1 0.250202 0.54681 0.2483
7 2 0.50021 0.707908 0.2483
59 1 0.583677 0.652176 0.0816333
71 1 0.666876 0.724297 0.2483
116 1 0.583535 0.54681 0.2483
119 1 0.750076 0.652176 0.0816333
171 1 0.750217 0.54681 0.2483
44 2 0.833543 0.707908 0.2483
95 1 0.91701 0.652176 0.0816333
152 1 0.916869 0.54681 0.2483
201 1 0.0814624 0.988742 0.0816333
23 2 0.000209672 0.835807 0.0816333
121 1 0.166876 0.805898 0.0816333
170 1 0.0856236 0.87801 0.2483
72 1 0.248129 0.87801 0.2483
69 1 0.25229 0.988742 0.0816333
165 1 0.414796 0.988742 0.0816333
3 2 0.333543 0.835807 0.0816333
206 1 0.418957 0.87801 0.2483
177 1 0.585624 0.988742 0.0816333
57 1 0.748129 0.988742 0.0816333
5 2 0.666876 0.835807 0.0816333
199 1 0.50021 0.805898 0.0816333
207 1 0.581462 0.87801 0.2483
203 1 0.918957 0.988742 0.0816333
62 1 0.75229 0.87801 0.2483
109 1 0.833543 0.805898 0.0816333
180 1 0.914796 0.87801 0.2483
10 2 0.000209671 0.158844 0.414967
13 2 0.166876 0.0309447 0.581633
73 1 0.166876 0.142455 0.414967
82 1 0.0836768 0.214575 0.581633
209 1 0.00020967 0.0608541 0.581633
46 2 0.333543 0.158844 0.414967
103 1 0.41701 0.214575 0.581633
132 1 0.250076 0.214575 0.581633
138 1 0.333543 0.0608541 0.581633
33 2 0.50021 0.0309447 0.581633
48 2 0.666876 0.158844 0.414967
105 1 0.583409 0.214575 0.581633
128 1 0.666876 0.0608541 0.581633
154 1 0.50021 0.142455 0.414967
15 2 0.833543 0.0309447 0.581633
78 1 0.916742 0.214575 0.581633
85 1 0.833543 0.142455 0.414967
136 1 0.750344 0.214575 0.581633
30 2 0.166876 0.493605 0.414967
51 2 0.00020967 0.373147 0.581633
100 1 0.000209668 0.476777 0.414967
141 1 0.0835352 0.319942 0.414967
182 1 0.166876 0.389975 0.581633
31 2 0.333543 0.373147 0.581633
158 1 0.416869 0.319942 0.414967
181 1 0.333543 0.476777 0.414967
191 1 0.250217 0.319942 0.414967
29 2 0.666876 0.373147 0.581633
50 2 0.50021 0.493605 0.414967
101 1 0.50021 0.389975 0.581633
156 1 0.583551 0.319942 0.414967
193 1 0.666876 0.476777 0.414967
28 2 0.833543 0.493605 0.414967
129 1 0.916884 0.319942 0.414967
185 1 0.750202 0.319942 0.414967
192 1 0.833543 0.389975 0.581633
47 2 0.166876 0.707908 0.581633
102 1 0.0834092 0.652176 0.414967
155 1 0.000209672 0.724297 0.581633
159 1 0.0835508 0.54681 0.581633
74 1 0.333543 0.724297 0.581633
83 1 0.416742 0.652176 0.414967
131 1 0.250344 0.652176 0.414967
140 1 0.416884 0.54681 0.581633
190 1 0.250202 0.54681 0.581633
11 2 0.50021 0.707908 0.581633
77 1 0.583677 0.652176 0.414967
84 1 0.666876 0.724297 0.581633
130 1 0.583535 0.54681 0.581633
137 1 0.750076 0.652176 0.414967
186 1 0.750217 0.54681 0.581633
49 2 0.833543 0.707908 0.581633
104 1 0.91701 0.652176 0.414967
157 1 0.916869 0.54681 0.581633
210 1 0.0814624 0.988742 0.414967
32 2 0.000209672 0.835807 0.414967
139 1 0.166876 0.805898 0.414967
184 1 0.0856236 0.87801 0.581633
86 1 0.248129 0.87801 0.581633
87 1 0.25229 0.988742 0.414967
183 1 0.414796 0.988742 0.414967
12 2 0.333543 0.835807 0.414967
211 1 0.418957 0.87801 0.581633
195 1 0.585624 0.988742 0.414967
75 1 0.748129 0.988742 0.414967
14 2 0.666876 0.835807 0.414967
208 1 0.50021 0.805898 0.414967
213 1 0.581462 0.87801 0.581633
212 1 0.918957 0.988742 0.414967
76 1 0.75229 0.87801 0.581633
127 1 0.833543 0.805898 0.414967
194 1 0.914796 0.87801 0.581633
4 2 0.166876 0.0309447 0.914967
16 2 0.000209671 0.158844 0.7483
64 1 0.0836768 0.214575 0.914967
79 1 0.166876 0.142455 0.7483
200 1 0.00020967 0.0608541 0.914967
52 2 0.333543 0.158844 0.7483
94 1 0.41701 0.214575 0.914967
114 1 0.250076 0.214575 0.914967
120 1 0.333543 0.0608541 0.914967
24 2 0.50021 0.0309447 0.914967
53 2 0.666876 0.158844 0.7483
96 1 0.583409 0.214575 0.914967
110 1 0.666876 0.0608541 0.914967
160 1 0.50021 0.142455 0.7483
6 2 0.833543 0.0309447 0.914967
60 1 0.916742 0.214575 0.914967
89 1 0.833543 0.142455 0.7483
118 1 0.750344 0.214575 0.914967
35 2 0.166876 0.493605 0.7483
42 2 0.00020967 0.373147 0.914967
106 1 0.000209668 0.476777 0.7483
144 1 0.0835352 0.319942 0.7483
164 1 0.166876 0.389975 0.914967
22 2 0.333543 0.373147 0.914967
162 1 0.416869 0.319942 0.7483
187 1 0.333543 0.476777 0.7483
196 1 0.250217 0.319942 0.7483
20 2 0.666876 0.373147 0.914967
54 2 0.50021 0.493605 0.7483
92 1 0.50021 0.389975 0.914967
161 1 0.583551 0.319942 0.7483
197 1 0.666876 0.476777 0.7483
34 2 0.833543 0.493605 0.7483
134 1 0.916884 0.319942 0.7483
174 1 0.833543 0.389975 0.914967
189 1 0.750202 0.319942 0.7483
38 2 0.166876 0.707908 0.914967
107 1 0.0834092 0.652176 0.7483
146 1 0.000209672 0.724297 0.914967
150 1 0.0835508 0.54681 0.914967
56 1 0.333543 0.724297 0.914967
88 1 0.416742 0.652176 0.7483
122 1 0.416884 0.54681 0.914967
135 1 0.250344 0.652176 0.7483
172 1 0.250202 0.54681 0.914967
2 2 0.50021 0.707908 0.914967
66 1 0.666876 0.724297 0.914967
81 1 0.583677 0.652176 0.7483
112 1 0.583535 0.54681 0.914967
142 1 0.750076 0.652176 0.7483
168 1 0.750217 0.54681 0.914967
40 2 0.833543 0.707908 0.914967
108 1 0.91701 0.652176 0.7483
148 1 0.916869 0.54681 0.914967
215 1 0.0814624 0.988742 0.7483
36 2 0.000209672 0.835807 0.7483
143 1 0.166876 0.805898 0.7483
166 1 0.0856236 0.87801 0.914967
68 1 0.248129 0.87801 0.914967
90 1 0.25229 0.988742 0.7483
188 1 0.414796 0.988742 0.7483
17 2 0.333543 0.835807 0.7483
202 1 0.418957 0.87801 0.914967
198 1 0.585624 0.988742 0.7483
80 1 0.748129 0.988742 0.7483
18 2 0.666876 0.835807 0.7483
204 1 0.581462 0.87801 0.914967
214 1 0.50021 0.805898 0.7483
216 1 0.918957 0.988742 0.7483
58 1 0.75229 0.87801 0.914967
133 1 0.833543 0.805898 0.7483
176 1 0.914796 0.87801 0.914967
ITEM: TIMESTEP
400
ITEM: NUMBER OF ATOMS
216
ITEM: BOX BOUNDS pp pp pp
0.0000000000000000e+00 1.5500000000000000e+01
0.0000000000000000e+00 1.5500000000000000e+01
0.0000000000000000e+00 1.2500000000000000e+01
ITEM: ATOMS id type xs ys zs
1 2 0.000209671 0.158844 0.0816333
8 2 0.166876 0.0309447 0.2483
55 1 0.166876 0.142455 0.0816333
70 1 0.0836768 0.214575 0.2483
205 1 0.00020967 0.0608541 0.2483
37 2 0.333543 0.158844 0.0816333
98 1 0.41701 0.214575 0.2483
117 1 0.250076 0.214575 0.2483
125 1 0.333543 0.0608541 0.2483
27 2 0.50021 0.0309447 0.2483
39 2 0.666876 0.158844 0.0816333
99 1 0.583409 0.214575 0.2483
115 1 0.666876 0.0608541 0.2483
145 1 0.50021 0.142455 0.0816333
9 2 0.833543 0.0309447 0.2483
63 1 0.916742 0.214575 0.2483
67 1 0.833543 0.142455 0.0816333
124 1 0.750344 0.214575 0.2483
21 2 0.166876 0.493605 0.0816333
45 2 0.000209668 0.373147 0.2483
91 1 0.000209665 0.476777 0.0816333
123 1 0.0835352 0.319942 0.0816333
169 1 0.166876 0.389975 0.2483
26 2 0.333543 0.373147 0.2483
149 1 0.416869 0.319942 0.0816333
163 1 0.333543 0.476777 0.0816333
173 1 0.250217 0.319942 0.0816333
25 2 0.666876 0.373147 0.2483
41 2 0.50021 0.493605 0.0816333
97 1 0.50021 0.389975 0.2483
147 1 0.583551 0.319942 0.0816333
175 1 0.666876 0.476777 0.0816333
19 2 0.833543 0.493605 0.0816333