ITEM: TIMESTEP
0
ITEM: NUMBER OF ATOMS
256
ITEM: BOX BOUNDS pp pp pp
-9.3000000000000005e-01 1.3670000000000000e+01
-9.3000000000000005e-01 1.3670000000000000e+01
-9.3000000000000005e-01 1.3670000000000000e+01
ITEM: ATOMS id type xs ys zs
1 1 0.0625 0.1875 0.1875
65 1 0.1875 0.1875 0.0625
129 1 0.1875 0.0625 0.1875
193 2 0.0625 0.0625 0.0625
17 1 0.3125 0.1875 0.1875
81 1 0.4375 0.1875 0.0625
145 1 0.4375 0.0625 0.1875
209 2 0.3125 0.0625 0.0625
33 1 0.5625 0.1875 0.1875
97 1 0.6875 0.1875 0.0625
161 1 0.6875 0.0625 0.1875
225 2 0.5625 0.0625 0.0625
49 1 0.8125 0.1875 0.1875
113 1 0.9375 0.1875 0.0625
177 1 0.9375 0.0625 0.1875
241 2 0.8125 0.0625 0.0625
5 1 0.0625 0.4375 0.1875
69 1 0.1875 0.4375 0.0625
133 1 0.1875 0.3125 0.1875
197 2 0.0625 0.3125 0.0625
21 1 0.3125 0.4375 0.1875
85 1 0.4375 0.4375 0.0625
149 1 0.4375 0.3125 0.1875
213 2 0.3125 0.3125 0.0625
37 1 0.5625 0.4375 0.1875
101 1 0.6875 0.4375 0.0625
165 1 0.6875 0.3125 0.1875
229 2 0.5625 0.3125 0.0625
53 1 0.8125 0.4375 0.1875
117 1 0.9375 0.4375 0.0625
181 1 0.9375 0.3125 0.1875
245 2 0.8125 0.3125 0.0625
9 1 0.0625 0.6875 0.1875
73 1 0.1875 0.6875 0.0625
137 1 0.1875 0.5625 0.1875
201 2 0.0625 0.5625 0.0625
25 1 0.3125 0.6875 0.1875
89 1 0.4375 0.6875 0.0625
153 1 0.4375 0.5625 0.1875
217 2 0.3125 0.5625 0.0625
41 1 0.5625 0.6875 0.1875
105 1 0.6875 0.6875 0.0625
169 1 0.6875 0.5625 0.1875
233 2 0.5625 0.5625 0.0625
57 1 0.8125 0.6875 0.1875
121 1 0.9375 0.6875 0.0625
185 1 0.9375 0.5625 0.1875
249 2 0.8125 0.5625 0.0625
13 1 0.0625 0.9375 0.1875
77 1 0.1875 0.9375 0.0625
141 1 0.1875 0.8125 0.1875
205 2 0.0625 0.8125 0.0625
29 1 0.3125 0.9375 0.1875
93 1 0.4375 0.9375 0.0625
157 1 0.4375 0.8125 0.1875
221 2 0.3125 0.8125 0.0625
45 1 0.5625 0.9375 0.1875
109 1 0.6875 0.9375 0.0625
173 1 0.6875 0.8125 0.1875
237 2 0.5625 0.8125 0.0625
61 1 0.8125 0.9375 0.1875
125 1 0.9375 0.9375 0.0625
189 1 0.9375 0.8125 0.1875
253 2 0.8125 0.8125 0.0625
2 1 0.0625 0.1875 0.4375
66 1 0.1875 0.1875 0.3125
130 1 0.1875 0.0625 0.4375
194 2 0.0625 0.0625 0.3125
18 1 0.3125 0.1875 0.4375
82 1 0.4375 0.1875 0.3125
146 1 0.4375 0.0625 0.4375
210 2 0.3125 0.0625 0.3125
34 1 0.5625 0.1875 0.4375
98 1 0.6875 0.1875 0.3125
162 1 0.6875 0.0625 0.4375
226 2 0.5625 0.0625 0.3125
50 1 0.8125 0.1875 0.4375
114 1 0.9375 0.1875 0.3125
178 1 0.9375 0.0625 0.4375
242 2 0.8125 0.0625 0.3125
6 1 0.0625 0.4375 0.4375
70 1 0.1875 0.4375 0.3125
134 1 0.1875 0.3125 0.4375
198 2 0.0625 0.3125 0.3125
22 1 0.3125 0.4375 0.4375
86 1 0.4375 0.4375 0.3125
150 1 0.4375 0.3125 0.4375
214 2 0.3125 0.3125 0.3125
38 1 0.5625 0.4375 0.4375
102 1 0.6875 0.4375 0.3125
166 1 0.6875 0.3125 0.4375
230 2 0.5625 0.3125 0.3125
54 1 0.8125 0.4375 0.4375
118 1 0.9375 0.4375 0.3125
182 1 0.9375 0.3125 0.4375
246 2 0.8125 0.3125 0.3125
10 1 0.0625 0.6875 0.4375
74 1 0.1875 0.6875 0.3125
138 1 0.1875 0.5625 0.4375
202 2 0.0625 0.5625 0.3125
26 1 0.3125 0.6875 0.4375
90 1 0.4375 0.6875 0.3125
154 1 0.4375 0.5625 0.4375
218 2 0.3125 0.5625 0.3125
42 1 0.5625 0.6875 0.4375
106 1 0.6875 0.6875 0.3125
170 1 0.6875 0.5625 0.4375
234 2 0.5625 0.5625 0.3125
58 1 0.8125 0.6875 0.4375
122 1 0.9375 0.6875 0.3125
186 1 0.9375 0.5625 0.4375
250 2 0.8125 0.5625 0.3125
14 1 0.0625 0.9375 0.4375
78 1 0.1875 0.9375 0.3125
142 1 0.1875 0.8125 0.4375
206 2 0.0625 0.8125 0.3125
30 1 0.3125 0.9375 0.4375
94 1 0.4375 0.9375 0.3125
158 1 0.4375 0.8125 0.4375
222 2 0.3125 0.8125 0.3125
46 1 0.5625 0.9375 0.4375
110 1 0.6875 0.9375 0.3125
174 1 0.6875 0.8125 0.4375
238 2 0.5625 0.8125 0.3125
62 1 0.8125 0.9375 0.4375
126 1 0.9375 0.9375 0.3125
190 1 0.9375 0.8125 0.4375
254 2 0.8125 0.8125 0.3125
3 1 0.0625 0.1875 0.6875
67 1 0.1875 0.1875 0.5625
131 1 0.1875 0.0625 0.6875
195 2 0.0625 0.0625 0.5625
19 1 0.3125 0.1875 0.6875
83 1 0.4375 0.1875 0.5625
147 1 0.4375 0.0625 0.6875
211 2 0.3125 0.0625 0.5625
35 1 0.5625 0.1875 0.6875
99 1 0.6875 0.1875 0.5625
163 1 0.6875 0.0625 0.6875
227 2 0.5625 0.0625 0.5625
51 1 0.8125 0.1875 0.6875
115 1 0.9375 0.1875 0.5625
179 1 0.9375 0.0625 0.6875
243 2 0.8125 0.0625 0.5625
7 1 0.0625 0.4375 0.6875
71 1 0.1875 0.4375 0.5625
135 1 0.1875 0.3125 0.6875
199 2 0.0625 0.3125 0.5625
23 1 0.3125 0.4375 0.6875
87 1 0.4375 0.4375 0.5625
151 1 0.4375 0.3125 0.6875
215 2 0.3125 0.3125 0.5625
39 1 0.5625 0.4375 0.6875
103 1 0.6875 0.4375 0.5625
167 1 0.6875 0.3125 0.6875
231 2 0.5625 0.3125 0.5625
55 1 0.8125 0.4375 0.6875
119 1 0.9375 0.4375 0.5625
183 1 0.9375 0.3125 0.6875
247 2 0.8125 0.3125 0.5625
11 1 0.0625 0.6875 0.6875
75 1 0.1875 0.6875 0.5625
139 1 0.1875 0.5625 0.6875
203 2 0.0625 0.5625 0.5625
27 1 0.3125 0.6875 0.6875
91 1 0.4375 0.6875 0.5625
155 1 0.4375 0.5625 0.6875
219 2 0.3125 0.5625 0.5625
43 1 0.5625 0.6875 0.6875
107 1 0.6875 0.6875 0.5625
171 1 0.6875 0.5625 0.6875
235 2 0.5625 0.5625 0.5625
59 1 0.8125 0.6875 0.6875
123 1 0.9375 0.6875 0.5625
187 1 0.9375 0.5625 0.6875
251 2 0.8125 0.5625 0.5625
15 1 0.0625 0.9375 0.6875
79 1 0.1875 0.9375 0.5625
143 1 0.1875 0.8125 0.6875
207 2 0.0625 0.8125 0.5625
31 1 0.3125 0.9375 0.6875
95 1 0.4375 0.9375 0.5625
159 1 0.4375 0.8125 0.6875
223 2 0.3125 0.8125 0.5625
47 1 0.5625 0.9375 0.6875
111 1 0.6875 0.9375 0.5625
175 1 0.6875 0.8125 0.6875
239 2 0.5625 0.8125 0.5625
63 1 0.8125 0.9375 0.6875
127 1 0.9375 0.9375 0.5625
191 1 0.9375 0.8125 0.6875
255 2 0.8125 0.8125 0.5625
4 1 0.0625 0.1875 0.9375
68 1 0.1875 0.1875 0.8125
132 1 0.1875 0.0625 0.9375
196 2 0.0625 0.0625 0.8125
20 1 0.3125 0.1875 0.9375
84 1 0.4375 0.1875 0.8125
148 1 0.4375 0.0625 0.9375
212 2 0.3125 0.0625 0.8125
36 1 0.5625 0.1875 0.9375
100 1 0.6875 0.1875 0.8125
164 1 0.6875 0.0625 0.9375
228 2 0.5625 0.0625 0.8125
52 1 0.8125 0.1875 0.9375
116 1 0.9375 0.1875 0.8125
180 1 0.9375 0.0625 0.9375
244 2 0.8125 0.0625 0.8125
8 1 0.0625 0.4375 0.9375
72 1 0.1875 0.4375 0.8125
136 1 0.1875 0.3125 0.9375
200 2 0.0625 0.3125 0.8125
24 1 0.3125 0.4375 0.9375
88 1 0.4375 0.4375 0.8125
152 1 0.4375 0.3125 0.9375
216 2 0.3125 0.3125 0.8125
40 1 0.5625 0.4375 0.9375
104 1 0.6875 0.4375 0.8125
168 1 0.6875 0.3125 0.9375
232 2 0.5625 0.3125 0.8125
56 1 0.8125 0.4375 0.9375
120 1 0.9375 0.4375 0.8125
184 1 0.9375 0.3125 0.9375
248 2 0.8125 0.3125 0.8125
12 1 0.0625 0.6875 0.9375
76 1 0.1875 0.6875 0.8125
140 1 0.1875 0.5625 0.9375
204 2 0.0625 0.5625 0.8125
28 1 0.3125 0.6875 0.9375
92 1 0.4375 0.6875 0.8125
156 1 0.4375 0.5625 0.9375
220 2 0.3125 0.5625 0.8125
44 1 0.5625 0.6875 0.9375
108 1 0.6875 0.6875 0.8125
172 1 0.6875 0.5625 0.9375
236 2 0.5625 0.5625 0.8125
60 1 0.8125 0.6875 0.9375
124 1 0.9375 0.6875 0.8125
188 1 0.9375 0.5625 0.9375
252 2 0.8125 0.5625 0.8125
16 1 0.0625 0.9375 0.9375
80 1 0.1875 0.9375 0.8125
144 1 0.1875 0.8125 0.9375
208 2 0.0625 0.8125 0.8125
32 1 0.3125 0.9375 0.9375
96 1 0.4375 0.9375 0.8125
160 1 0.4375 0.8125 0.9375
224 2 0.3125 0.8125 0.8125
48 1 0.5625 0.9375 0.9375
112 1 0.6875 0.9375 0.8125
176 1 0.6875 0.8125 0.9375
240 2 0.5625 0.8125 0.8125
64 1 0.8125 0.9375 0.9375
128 1 0.9375 0.9375 0.8125
192 1 0.9375 0.8125 0.9375
256 2 0.8125 0.8125 0.8125
ITEM: TIMESTEP
100
ITEM: NUMBER OF ATOMS
256
ITEM: BOX BOUNDS pp pp pp
-9.3000000000000005e-01 1.3670000000000000e+01
-9.3000000000000005e-01 1.3670000000000000e+01
-9.3000000000000005e-01 1.3670000000000000e+01
ITEM: ATOMS id type xs ys zs
1 1 0.0625 0.1875 0.1875
65 1 0.1875 0.1875 0.0625
129 1 0.1875 0.0625 0.1875
193 2 0.0625 0.0625 0.0625
17 1 0.3125 0.1875 0.1875
81 1 0.4375 0.1875 0.0625
145 1 0.4375 0.0625 0.1875
209 2 0.3125 0.0625 0.0625
33 1 0.5625 0.1875 0.1875
97 1 0.6875 0.1875 0.0625
161 1 0.6875 0.0625 0.1875
225 2 0.5625 0.0625 0.0625
49 1 0.8125 0.1875 0.1875
113 1 0.9375 0.1875 0.0625
177 1 0.9375 0.0625 0.1875
241 2 0.8125 0.0625 0.0625
5 1 0.0625 0.4375 0.1875
69 1 0.1875 0.4375 0.0625
133 1 0.1875 0.3125 0.1875
197 2 0.0625 0.3125 0.0625
21 1 0.3125 0.4375 0.1875
85 1 0.4375 0.4375 0.0625
149 1 0.4375 0.3125 0.1875
213 2 0.3125 0.3125 0.0625
37 1 0.5625 0.4375 0.1875
101 1 0.6875 0.4375 0.0625
165 1 0.6875 0.3125 0.1875
229 2 0.5625 0.3125 0.0625
53 1 0.8125 0.4375 0.1875
117 1 0.9375 0.4375 0.0625
181 1 0.9375 0.3125 0.1875
245 2 0.8125 0.3125 0.0625
9 1 0.0625 0.6875 0.1875
73 1 0.1875 0.6875 0.0625
137 1 0.1875 0.5625 0.1875
201 2 0.0625 0.5625 0.0625
25 1 0.3125 0.6875 0.1875
89 1 0.4375 0.6875 0.0625
153 1 0.4375 0.5625 0.1875
217 2 0.3125 0.5625 0.0625
41 1 0.5625 0.6875 0.1875
105 1 0.6875 0.6875 0.0625
169 1 0.6875 0.5625 0.1875
233 2 0.5625 0.5625 0.0625
57 1 0.8125 0.6875 0.1875
121 1 0.9375 0.6875 0.0625
185 1 0.9375 0.5625 0.1875
249 2 0.8125 0.5625 0.0625
13 1 0.0625 0.9375 0.1875
77 1 0.1875 0.9375 0.0625
141 1 0.1875 0.8125 0.1875
205 2 0.0625 0.8125 0.0625
29 1 0.3125 0.9375 0.1875
93 1 0.4375 0.9375 0.0625
157 1 0.4375 0.8125 0.1875
221 2 0.3125 0.8125 0.0625
45 1 0.5625 0.9375 0.1875
109 1 0.6875 0.9375 0.0625
173 1 0.6875 0.8125 0.1875
237 2 0.5625 0.8125 0.0625
61 1 0.8125 0.9375 0.1875
125 1 0.9375 0.9375 0.0625
189 1 0.9375 0.8125 0.1875
253 2 0.8125 0.8125 0.0625
2 1 0.0625 0.1875 0.4375
66 1 0.1875 0.1875 0.3125
130 1 0.1875 0.0625 0.4375
194 2 0.0625 0.0625 0.3125
18 1 0.3125 0.1875 0.4375
82 1 0.4375 0.1875 0.3125
146 1 0.4375 0.0625 0.4375
210 2 0.3125 0.0625 0.3125
34 1 0.5625 0.1875 0.4375
98 1 0.6875 0.1875 0.3125
162 1 0.6875 0.0625 0.4375
226 2 0.5625 0.0625 0.3125
50 1 0.8125 0.1875 0.4375
114 1 0.9375 0.1875 0.3125
178 1 0.9375 0.0625 0.4375
242 2 0.8125 0.0625 0.3125
6 1 0.0625 0.4375 0.4375
70 1 0.1875 0.4375 0.3125
134 1 0.1875 0.3125 0.4375
198 2 0.0625 0.3125 0.3125
22 1 0.3125 0.4375 0.4375
86 1 0.4375 0.4375 0.3125
150 1 0.4375 0.3125 0.4375
214 2 0.3125 0.3125 0.3125
38 1 0.5625 0.4375 0.4375
102 1 0.6875 0.4375 0.3125
166 1 0.6875 0.3125 0.4375
230 2 0.5625 0.3125 0.3125
54 1 0.8125 0.4375 0.4375
118 1 0.9375 0.4375 0.3125
182 1 0.9375 0.3125 0.4375
246 2 0.8125 0.3125 0.3125
10 1 0.0625 0.6875 0.4375
74 1 0.1875 0.6875 0.3125
138 1 0.1875 0.5625 0.4375
202 2 0.0625 0.5625 0.3125
26 1 0.3125 0.6875 0.4375
90 1 0.4375 0.6875 0.3125
154 1 0.4375 0.5625 0.4375
218 2 0.3125 0.5625 0.3125
42 1 0.5625 0.6875 0.4375
106 1 0.6875 0.6875 0.3125
170 1 0.6875 0.5625 0.4375
234 2 0.5625 0.5625 0.3125
58 1 0.8125 0.6875 0.4375
122 1 0.9375 0.6875 0.3125
186 1 0.9375 0.5625 0.4375
250 2 0.8125 0.5625 0.3125
14 1 0.0625 0.9375 0.4375
78 1 0.1875 0.9375 0.3125
142 1 0.1875 0.8125 0.4375
206 2 0.0625 0.8125 0.3125
30 1 0.3125 0.9375 0.4375
94 1 0.4375 0.9375 0.3125
158 1 0.4375 0.8125 0.4375
222 2 0.3125 0.8125 0.3125
46 1 0.5625 0.9375 0.4375
110 1 0.6875 0.9375 0.3125
174 1 0.6875 0.8125 0.4375
238 2 0.5625 0.8125 0.3125
62 1 0.8125 0.9375 0.4375
126 1 0.9375 0.9375 0.3125
190 1 0.9375 0.8125 0.4375
254 2 0.8125 0.8125 0.3125
3 1 0.0625 0.1875 0.6875
67 1 0.1875 0.1875 0.5625
131 1 0.1875 0.0625 0.6875
195 2 0.0625 0.0625 0.5625
19 1 0.3125 0.1875 0.6875
83 1 0.4375 0.1875 0.5625
147 1 0.4375 0.0625 0.6875
211 2 0.3125 0.0625 0.5625
35 1 0.5625 0.1875 0.6875
99 1 0.6875 0.1875 0.5625
163 1 0.6875 0.0625 0.6875
227 2 0.5625 0.0625 0.5625
51 1 0.8125 0.1875 0.6875
115 1 0.9375 0.1875 0.5625
179 1 0.9375 0.0625 0.6875
243 2 0.8125 0.0625 0.5625
7 1 0.0625 0.4375 0.6875
71 1 0.1875 0.4375 0.5625
135 1 0.1875 0.3125 0.6875
199 2 0.0625 0.3125 0.5625
23 1 0.3125 0.4375 0.6875
87 1 0.4375 0.4375 0.5625
151 1 0.4375 0.3125 0.6875
215 2 0.3125 0.3125 0.5625
39 1 0.5625 0.4375 0.6875
103 1 0.6875 0.4375 0.5625
167 1 0.6875 0.3125 0.6875
231 2 0.5625 0.3125 0.5625
55 1 0.8125 0.4375 0.6875
119 1 0.9375 0.4375 0.5625
183 1 0.9375 0.3125 0.6875
247 2 0.8125 0.3125 0.5625
11 1 0.0625 0.6875 0.6875
75 1 0.1875 0.6875 0.5625
139 1 0.1875 0.5625 0.6875
203 2 0.0625 0.5625 0.5625
27 1 0.3125 0.6875 0.6875
91 1 0.4375 0.6875 0.5625
155 1 0.4375 0.5625 0.6875
219 2 0.3125 0.5625 0.5625
43 1 0.5625 0.6875 0.6875
107 1 0.6875 0.6875 0.5625
171 1 0.6875 0.5625 0.6875
235 2 0.5625 0.5625 0.5625
59 1 0.8125 0.6875 0.6875
123 1 0.9375 0.6875 0.5625
187 1 0.9375 0.5625 0.6875
251 2 0.8125 0.5625 0.5625
15 1 0.0625 0.9375 0.6875
79 1 0.1875 0.9375 0.5625
143 1 0.1875 0.8125 0.6875
207 2 0.0625 0.8125 0.5625
31 1 0.3125 0.9375 0.6875
95 1 0.4375 0.9375 0.5625
159 1 0.4375 0.8125 0.6875
223 2 0.3125 0.8125 0.5625
47 1 0.5625 0.9375 0.6875
111 1 0.6875 0.9375 0.5625
175 1 0.6875 0.8125 0.6875
239 2 0.5625 0.8125 0.5625
63 1 0.8125 0.9375 0.6875
127 1 0.9375 0.9375 0.5625
191 1 0.9375 0.8125 0.6875
255 2 0.8125 0.8125 0.5625
4 1 0.0625 0.1875 0.9375
68 1 0.1875 0.1875 0.8125
132 1 0.1875 0.0625 0.9375
196 2 0.0625 0.0625 0.8125
20 1 0.3125 0.1875 0.9375
84 1 0.4375 0.1875 0.8125
148 1 0.4375 0.0625 0.9375
212 2 0.3125 0.0625 0.8125
36 1 0.5625 0.1875 0.9375
100 1 0.6875 0.1875 0.8125
164 1 0.6875 0.0625 0.9375
228 2 0.5625 0.0625 0.8125
52 1 0.8125 0.1875 0.9375
116 1 0.9375 0.1875 0.8125
180 1 0.9375 0.0625 0.9375
244 2 0.8125 0.0625 0.8125
8 1 0.0625 0.4375 0.9375
72 1 0.1875 0.4375 0.8125
136 1 0.1875 0.3125 0.9375
200 2 0.0625 0.3125 0.8125
24 1 0.3125 0.4375 0.9375
88 1 0.4375 0.4375 0.8125
152 1 0.4375 0.3125 0.9375
216 2 0.3125 0.3125 0.8125
40 1 0.5625 0.4375 0.9375
104 1 0.6875 0.4375 0.8125
168 1 0.6875 0.3125 0.9375
232 2 0.5625 0.3125 0.8125
56 1 0.8125 0.4375 0.9375
120 1 0.9375 0.4375 0.8125
184 1 0.9375 0.3125 0.9375
248 2 0.8125 0.3125 0.8125
12 1 0.0625 0.6875 0.9375
76 1 0.1875 0.6875 0.8125
140 1 0.1875 0.5625 0.9375
204 2 0.0625 0.5625 0.8125
28 1 0.3125 0.6875 0.9375
92 1 0.4375 0.6875 0.8125
156 1 0.4375 0.5625 0.9375
220 2 0.3125 0.5625 0.8125
44 1 0.5625 0.6875 0.9375
108 1 0.6875 0.6875 0.8125
172 1 0.6875 0.5625 0.9375
236 2 0.5625 0.5625 0.8125
60 1 0.8125 0.6875 0.9375
124 1 0.9375 0.6875 0.8125
188 1 0.9375 0.5625 0.9375
252 2 0.8125 0.5625 0.8125
16 1 0.0625 0.9375 0.9375
80 1 0.1875 0.9375 0.8125
144 1 0.1875 0.8125 0.9375
208 2 0.0625 0.8125 0.8125
32 1 0.3125 0.9375 0.9375
96 1 0.4375 0.9375 0.8125
160 1 0.4375 0.8125 0.9375
224 2 0.3125 0.8125 0.8125
48 1 0.5625 0.9375 0.9375
112 1 0.6875 0.9375 0.8125
176 1 0.6875 0.8125 0.9375
240 2 0.5625 0.8125 0.8125
64 1 0.8125 0.9375 0.9375
128 1 0.9375 0.9375 0.8125
192 1 0.9375 0.8125 0.9375
256 2 0.8125 0.8125 0.8125
ITEM: TIMESTEP
200
ITEM: NUMBER OF ATOMS
256
ITEM: BOX BOUNDS pp pp pp
-9.3000000000000005e-01 1.3670000000000000e+01
-9.3000000000000005e-01 1.3670000000000000e+01
-9.3000000000000005e-01 1.3670000000000000e+01
ITEM: ATOMS id type xs ys zs
1 1 0.0625 0.1875 0.1875
65 1 0.1875 0.1875 0.0625
129 1 0.1875 0.0625 0.1875
193 2 0.0625 0.0625 0.0625
17 1 0.3125 0.1875 0.1875
81 1 0.4375 0.1875 0.0625
145 1 0.4375 0.0625 0.1875
209 2 0.3125 0.0625 0.0625
33 1 0.5625 0.1875 0.1875
97 1 0.6875 0.1875 0.0625
161 1 0.6875 0.0625 0.1875
225 2 0.5625 0.0625 0.0625
49 1 0.8125 0.1875 0.1875
113 1 0.9375 0.1875 0.0625
177 1 0.9375 0.0625 0.1875
241 2 0.8125 0.0625 0.0625
5 1 0.0625 0.4375 0.1875
69 1 0.1875 0.4375 0.0625
133 1 0.1875 0.3125 0.1875
197 2 0.0625 0.3125 0.0625
21 1 0.3125 0.4375 0.1875
85 1 0.4375 0.4375 0.0625
149 1 0.4375 0.3125 0.1875
213 2 0.3125 0.3125 0.0625
37 1 0.5625 0.4375 0.1875
101 1 0.6875 0.4375 0.0625
165 1 0.6875 0.3125 0.1875
229 2 0.5625 0.3125 0.0625
53 1 0.8125 0.4375 0.1875
117 1 0.9375 0.4375 0.0625
181 1 0.9375 0.3125 0.1875
245 2 0.8125 0.3125 0.0625
9 1 0.0625 0.6875 0.1875
73 1 0.1875 0.6875 0.0625
137 1 0.1875 0.5625 0.1875
201 2 0.0625 0.5625 0.0625
25 1 0.3125 0.6875 0.1875
89 1 0.4375 0.6875 0.0625
153 1 0.4375 0.5625 0.1875
217 2 0.3125 0.5625 0.0625
41 1 0.5625 0.6875 0.1875
105 1 0.6875 0.6875 0.0625
169 1 0.6875 0.5625 0.1875
233 2 0.5625 0.5625 0.0625
57 1 0.8125 0.6875 0.1875
121 1 0.9375 0.6875 0.0625
185 1 0.9375 0.5625 0.1875
249 2 0.8125 0.5625 0.0625
13 1 0.0625 0.9375 0.1875
77 1 0.1875 0.9375 0.0625
141 1 0.1875 0.8125 0.1875
205 2 0.0625 0.8125 0.0625
29 1 0.3125 0.9375 0.1875
93 1 0.4375 0.9375 0.0625
157 1 0.4375 0.8125 0.1875
221 2 0.3125 0.8125 0.0625
45 1 0.5625 0.9375 0.1875
109 1 0.6875 0.9375 0.0625
173 1 0.6875 0.8125 0.1875
237 2 0.5625 0.8125 0.0625
61 1 0.8125 0.9375 0.1875
125 1 0.9375 0.9375 0.0625
189 1 0.9375 0.8125 0.1875
253 2 0.8125 0.8125 0.0625
2 1 0.0625 0.1875 0.4375
66 1 0.1875 0.1875 0.3125
130 1 0.1875 0.0625 0.4375
194 2 0.0625 0.0625 0.3125
18 1 0.3125 0.1875 0.4375
82 1 0.4375 0.1875 0.3125
146 1 0.4375 0.0625 0.4375
210 2 0.3125 0.0625 0.3125
34 1 0.5625 0.1875 0.4375
98 1 0.6875 0.1875 0.3125
162 1 0.6875 0.0625 0.4375
226 2 0.5625 0.0625 0.3125
50 1 0.8125 0.1875 0.4375
114 1 0.9375 0.1875 0.3125
178 1 0.9375 0.0625 0.4375
242 2 0.8125 0.0625 0.3125
6 1 0.0625 0.4375 0.4375
70 1 0.1875 0.4375 0.3125
134 1 0.1875 0.3125 0.4375
198 2 0.0625 0.3125 0.3125
22 1 0.3125 0.4375 0.4375
86 1 0.4375 0.4375 0.3125
150 1 0.4375 0.3125 0.4375
214 2 0.3125 0.3125 0.3125
38 1 0.5625 0.4375 0.4375
102 1 0.6875 0.4375 0.3125
166 1 0.6875 0.3125 0.4375
230 2 0.5625 0.3125 0.3125
54 1 0.8125 0.4375 0.4375
118 1 0.9375 0.4375 0.3125
182 1 0.9375 0.3125 0.4375
246 2 0.8125 0.3125 0.3125
10 1 0.0625 0.6875 0.4375
74 1 0.1875 0.6875 0.3125
138 1 0.1875 0.5625 0.4375
202 2 0.0625 0.5625 0.3125
26 1 0.3125 0.6875 0.4375
90 1 0.4375 0.6875 0.3125
154 1 0.4375 0.5625 0.4375
218 2 0.3125 0.5625 0.3125
42 1 0.5625 0.6875 0.4375
106 1 0.6875 0.6875 0.3125
170 1 0.6875 0.5625 0.4375
234 2 0.5625 0.5625 0.3125
58 1 0.8125 0.6875 0.4375
122 1 0.9375 0.6875 0.3125
186 1 0.9375 0.5625 0.4375
250 2 0.8125 0.5625 0.3125
14 1 0.0625 0.9375 0.4375
78 1 0.1875 0.9375 0.3125
142 1 0.1875 0.8125 0.4375
206 2 0.0625 0.8125 0.3125
30 1 0.3125 0.9375 0.4375
94 1 0.4375 0.9375 0.3125
158 1 0.4375 0.8125 0.4375
222 2 0.3125 0.8125 0.3125
46 1 0.5625 0.9375 0.4375
110 1 0.6875 0.9375 0.3125
174 1 0.6875 0.8125 0.4375
238 2 0.5625 0.8125 0.3125
62 1 0.8125 0.9375 0.4375
126 1 0.9375 0.9375 0.3125
190 1 0.9375 0.8125 0.4375
254 2 0.8125 0.8125 0.3125
3 1 0.0625 0.1875 0.6875
67 1 0.1875 0.1875 0.5625
131 1 0.1875 0.0625 0.6875
195 2 0.0625 0.0625 0.5625
19 1 0.3125 0.1875 0.6875
83 1 0.4375 0.1875 0.5625
147 1 0.4375 0.0625 0.6875
211 2 0.3125 0.0625 0.5625
35 1 0.5625 0.1875 0.6875
99 1 0.6875 0.1875 0.5625
163 1 0.6875 0.0625 0.6875
227 2 0.5625 0.0625 0.5625
51 1 0.8125 0.1875 0.6875
115 1 0.9375 0.1875 0.5625
179 1 0.9375 0.0625 0.6875
243 2 0.8125 0.0625 0.5625
7 1 0.0625 0.4375 0.6875
71 1 0.1875 0.4375 0.5625
135 1 0.1875 0.3125 0.6875
199 2 0.0625 0.3125 0.5625
23 1 0.3125 0.4375 0.6875
87 1 0.4375 0.4375 0.5625
151 1 0.4375 0.3125 0.6875
215 2 0.3125 0.3125 0.5625
39 1 0.5625 0.4375 0.6875
103 1 0.6875 0.4375 0.5625
167 1 0.6875 0.3125 0.6875
231 2 0.5625 0.3125 0.5625
55 1 0.8125 0.4375 0.6875
119 1 0.9375 0.4375 0.5625
183 1 0.9375 0.3125 0.6875
247 2 0.8125 0.3125 0.5625
11 1 0.0625 0.6875 0.6875
75 1 0.1875 0.6875 0.5625
139 1 0.1875 0.5625 0.6875
203 2 0.0625 0.5625 0.5625
27 1 0.3125 0.6875 0.6875
91 1 0.4375 0.6875 0.5625
155 1 0.4375 0.5625 0.6875
219 2 0.3125 0.5625 0.5625
43 1 0.5625 0.6875 0.6875
107 1 0.6875 0.6875 0.5625
171 1 0.6875 0.5625 0.6875
235 2 0.5625 0.5625 0.5625
59 1 0.8125 0.6875 0.6875
123 1 0.9375 0.6875 0.5625
187 1 0.9375 0.5625 0.6875
251 2 0.8125 0.5625 0.5625
15 1 0.0625 0.9375 0.6875
79 1 0.1875 0.9375 0.5625
143 1 0.1875 0.8125 0.6875
207 2 0.0625 0.8125 0.5625
31 1 0.3125 0.9375 0.6875
95 1 0.4375 0.9375 0.5625
159 1 0.4375 0.8125 0.6875
223 2 0.3125 0.8125 0.5625
47 1 0.5625 0.9375 0.6875
111 1 0.6875 0.9375 0.5625
175 1 0.6875 0.8125 0.6875
239 2 0.5625 0.8125 0.5625
63 1 0.8125 0.9375 0.6875
127 1 0.9375 0.9375 0.5625
191 1 0.9375 0.8125 0.6875
255 2 0.8125 0.8125 0.5625
4 1 0.0625 0.1875 0.9375
68 1 0.1875 0.1875 0.8125
132 1 0.1875 0.0625 0.9375
196 2 0.0625 0.0625 0.8125
20 1 0.3125 0.1875 0.9375
84 1 0.4375 0.1875 0.8125
148 1 0.4375 0.0625 0.9375
212 2 0.3125 0.0625 0.8125
36 1 0.5625 0.1875 0.9375
100 1 0.6875 0.1875 0.8125
164 1 0.6875 0.0625 0.9375
228 2 0.5625 0.0625 0.8125
52 1 0.8125 0.1875 0.9375
116 1 0.9375 0.1875 0.8125
180 1 0.9375 0.0625 0.9375
244 2 0.8125 0.0625 0.8125
8 1 0.0625 0.4375 0.9375
72 1 0.1875 0.4375 0.8125
136 1 0.1875 0.3125 0.9375
200 2 0.0625 0.3125 0.8125
24 1 0.3125 0.4375 0.9375
88 1 0.4375 0.4375 0.8125
152 1 0.4375 0.3125 0.9375
216 2 0.3125 0.3125 0.8125
40 1 0.5625 0.4375 0.9375
104 1 0.6875 0.4375 0.8125
168 1 0.6875 0.3125 0.9375
232 2 0.5625 0.3125 0.8125
56 1 0.8125 0.4375 0.9375
120 1 0.9375 0.4375 0.8125
184 1 0.9375 0.3125 0.9375
248 2 0.8125 0.3125 0.8125
12 1 0.0625 0.6875 0.9375
76 1 0.1875 0.6875 0.8125
140 1 0.1875 0.5625 0.9375
204 2 0.0625 0.5625 0.8125
28 1 0.3125 0.6875 0.9375
92 1 0.4375 0.6875 0.8125
156 1 0.4375 0.5625 0.9375
220 2 0.3125 0.5625 0.8125
44 1 0.5625 0.6875 0.9375
108 1 0.6875 0.6875 0.8125
172 1 0.6875 0.5625 0.9375
236 2 0.5625 0.5625 0.8125
60 1 0.8125 0.6875 0.9375
124 1 0.9375 0.6875 0.8125
188 1 0.9375 0.5625 0.9375
252 2 0.8125 0.5625 0.8125
16 1 0.0625 0.9375 0.9375
80 1 0.1875 0.9375 0.8125
144 1 0.1875 0.8125 0.9375
208 2 0.0625 0.8125 0.8125
32 1 0.3125 0.9375 0.9375
96 1 0.4375 0.9375 0.8125
160 1 0.4375 0.8125 0.9375
224 2 0.3125 0.8125 0.8125
48 1 0.5625 0.9375 0.9375
112 1 0.6875 0.9375 0.8125
176 1 0.6875 0.8125 0.9375
240 2 0.5625 0.8125 0.8125
64 1 0.8125 0.9375 0.9375
128 1 0.9375 0.9375 0.8125
192 1 0.9375 0.8125 0.9375
256 2 0.8125 0.8125 0.8125
ITEM: TIMESTEP
300
ITEM: NUMBER OF ATOMS
256
ITEM: BOX BOUNDS pp pp pp
-9.3000000000000005e-01 1.3670000000000000e+01
-9.3000000000000005e-01 1.3670000000000000e+01
-9.3000000000000005e-01 1.3670000000000000e+01
ITEM: ATOMS id type xs ys zs
1 1 0.0625 0.1875 0.1875
65 1 0.1875 0.1875 0.0625
129 1 0.1875 0.0625 0.1875
193 2 0.0625 0.0625 0.0625
17 1 0.3125 0.1875 0.1875
81 1 0.4375 0.1875 0.0625
145 1 0.4375 0.0625 0.1875
209 2 0.3125 0.0625 0.0625
33 1 0.5625 0.1875 0.1875
97 1 0.6875 0.1875 0.0625
161 1 0.6875 0.0625 0.1875
225 2 0.5625 0.0625 0.0625
49 1 0.8125 0.1875 0.1875
113 1 0.9375 0.1875 0.0625
177 1 0.9375 0.0625 0.1875
241 2 0.8125 0.0625 0.0625
5 1 0.0625 0.4375 0.1875
69 1 0.1875 0.4375 0.0625
133 1 0.1875 0.3125 0.1875
197 2 0.0625 0.3125 0.0625
21 1 0.3125 0.4375 0.1875
85 1 0.4375 0.4375 0.0625
149 1 0.4375 0.3125 0.1875
213 2 0.3125 0.3125 0.0625
37 1 0.5625 0.4375 0.1875
101 1 0.6875 0.4375 0.0625
165 1 0.6875 0.3125 0.1875
229 2 0.5625 0.3125 0.0625
53 1 0.8125 0.4375 0.1875
117 1 0.9375 0.4375 0.0625
181 1 0.9375 0.3125 0.1875
245 2 0.8125 0.3125 0.0625
9 1 0.0625 0.6875 0.1875
73 1 0.1875 0.6875 0.0625
137 1 0.1875 0.5625 0.1875
201 2 0.0625 0.5625 0.0625
25 1 0.3125 0.6875 0.1875
89 1 0.4375 0.6875 0.0625
153 1 0.4375 0.5625 0.1875
217 2 0.3125 0.5625 0.0625
41 1 0.5625 0.6875 0.1875
105 1 0.6875 0.6875 0.0625
169 1 0.6875 0.5625 0.1875
233 2 0.5625 0.5625 0.0625
57 1 0.8125 0.6875 0.1875
121 1 0.9375 0.6875 0.0625
185 1 0.9375 0.5625 0.1875
249 2 0.8125 0.5625 0.0625
13 1 0.0625 0.9375 0.1875
77 1 0.1875 0.9375 0.0625
141 1 0.1875 0.8125 0.1875
205 2 0.0625 0.8125 0.0625
29 1 0.3125 0.9375 0.1875
93 1 0.4375 0.9375 0.0625
157 1 0.4375 0.8125 0.1875
221 2 0.3125 0.8125 0.0625
45 1 0.5625 0.9375 0.1875
109 1 0.6875 0.9375 0.0625
173 1 0.6875 0.8125 0.1875
237 2 0.5625 0.8125 0.0625
61 1 0.8125 0.9375 0.1875
125 1 0.9375 0.9375 0.0625
189 1 0.9375 0.8125 0.1875
253 2 0.8125 0.8125 0.0625
2 1 0.0625 0.1875 0.4375
66 1 0.1875 0.1875 0.3125
130 1 0.1875 0.0625 0.4375
194 2 0.0625 0.0625 0.3125
18 1 0.3125 0.1875 0.4375
82 1 0.4375 0.1875 0.3125
146 1 0.4375 0.0625 0.4375
210 2 0.3125 0.0625 0.3125
34 1 0.5625 0.1875 0.4375
98 1 0.6875 0.1875 0.3125
162 1 0.6875 0.0625 0.4375
226 2 0.5625 0.0625 0.3125
50 1 0.8125 0.1875 0.4375
114 1 0.9375 0.1875 0.3125
178 1 0.9375 0.0625 0.4375
242 2 0.8125 0.0625 0.3125
6 1 0.0625 0.4375 0.4375
70 1 0.1875 0.4375 0.3125
134 1 0.1875 0.3125 0.4375
198 2 0.0625 0.3125 0.3125
22 1 0.3125 0.4375 0.4375
86 1 0.4375 0.4375 0.3125
150 1 0.4375 0.3125 0.4375
214 2 0.3125 0.3125 0.3125
38 1 0.5625 0.4375 0.4375
102 1 0.6875 0.4375 0.3125
166 1 0.6875 0.3125 0.4375
230 2 0.5625 0.3125 0.3125
54 1 0.8125 0.4375 0.4375
118 1 0.9375 0.4375 0.3125
182 1 0.9375 0.3125 0.4375
246 2 0.8125 0.3125 0.3125
10 1 0.0625 0.6875 0.4375
74 1 0.1875 0.6875 0.3125
138 1 0.1875 0.5625 0.4375
202 2 0.0625 0.5625 0.3125
26 1 0.3125 0.6875 0.4375
90 1 0.4375 0.6875 0.3125
154 1 0.4375 0.5625 0.4375
218 2 0.3125 0.5625 0.3125
42 1 0.5625 0.6875 0.4375
106 1 0.6875 0.6875 0.3125
170 1 0.6875 0.5625 0.4375
234 2 0.5625 0.5625 0.3125
58 1 0.8125 0.6875 0.4375
122 1 0.9375 0.6875 0.3125
186 1 0.9375 0.5625 0.4375
250 2 0.8125 0.5625 0.3125
14 1 0.0625 0.9375 0.4375
78 1 0.1875 0.9375 0.3125
142 1 0.1875 0.8125 0.4375
206 2 0.0625 0.8125 0.3125
30 1 0.3125 0.9375 0.4375
94 1 0.4375 0.9375 0.3125
158 1 0.4375 0.8125 0.4375
222 2 0.3125 0.8125 0.3125
46 1 0.5625 0.9375 0.4375
110 1 0.6875 0.9375 0.3125
174 1 0.6875 0.8125 0.4375
238 2 0.5625 0.8125 0.3125
62 1 0.8125 0.9375 0.4375
126 1 0.9375 0.9375 0.3125
190 1 0.9375 0.8125 0.4375
254 2 0.8125 0.8125 0.3125
3 1 0.0625 0.1875 0.6875
67 1 0.1875 0.1875 0.5625
131 1 0.1875 0.0625 0.6875
195 2 0.0625 0.0625 0.5625
19 1 0.3125 0.1875 0.6875
83 1 0.4375 0.1875 0.5625
147 1 0.4375 0.0625 0.6875
211 2 0.3125 0.0625 0.5625
35 1 0.5625 0.1875 0.6875
99 1 0.6875 0.1875 0.5625
163 1 0.6875 0.0625 0.6875
227 2 0.5625 0.0625 0.5625
51 1 0.8125 0.1875 0.6875
115 1 0.9375 0.1875 0.5625
179 1 0.9375 0.0625 0.6875
243 2 0.8125 0.0625 0.5625
7 1 0.0625 0.4375 0.6875
71 1 0.1875 0.4375 0.5625
135 1 0.1875 0.3125 0.6875
199 2 0.0625 0.3125 0.5625
23 1 0.3125 0.4375 0.6875
87 1 0.4375 0.4375 0.5625
151 1 0.4375 0.3125 0.6875
215 2 0.3125 0.3125 0.5625
39 1 0.5625 0.4375 0.6875
103 1 0.6875 0.4375 0.5625
167 1 0.6875 0.3125 0.6875
231 2 0.5625 0.3125 0.5625
55 1 0.8125 0.4375 0.6875
119 1 0.9375 0.4375 0.5625
183 1 0.9375 0.3125 0.6875
247 2 0.8125 0.3125 0.5625
11 1 0.0625 0.6875 0.6875
75 1 0.1875 0.6875 0.5625
139 1 0.1875 0.5625 0.6875
203 2 0.0625 0.5625 0.5625
27 1 0.3125 0.6875 0.6875
91 1 0.4375 0.6875 0.5625
155 1 0.4375 0.5625 0.6875
219 2 0.3125 0.5625 0.5625
43 1 0.5625 0.6875 0.6875
107 1 0.6875 0.6875 0.5625
171 1 0.6875 0.5625 0.6875
235 2 0.5625 0.5625 0.5625
59 1 0.8125 0.6875 0.6875
123 1 0.9375 0.6875 0.5625
187 1 0.9375 0.5625 0.6875
251 2 0.8125 0.5625 0.5625
15 1 0.0625 0.9375 0.6875
79 1 0.1875 0.9375 0.5625
143 1 0.1875 0.8125 0.6875
207 2 0.0625 0.8125 0.5625
31 1 0.3125 0.9375 0.6875
95 1 0.4375 0.9375 0.5625
159 1 0.4375 0.8125 0.6875
223 2 0.3125 0.8125 0.5625
47 1 0.5625 0.9375 0.6875
111 1 0.6875 0.9375 0.5625
175 1 0.6875 0.8125 0.6875
239 2 0.5625 0.8125 0.5625
63 1 0.8125 0.9375 0.6875
127 1 0.9375 0.9375 0.5625
191 1 0.9375 0.8125 0.6875
255 2 0.8125 0.8125 0.5625
4 1 0.0625 0.1875 0.9375
68 1 0.1875 0.1875 0.8125
132 1 0.1875 0.0625 0.9375
196 2 0.0625 0.0625 0.8125
20 1 0.3125 0.1875 0.9375
84 1 0.4375 0.1875 0.8125
148 1 0.4375 0.0625 0.9375
212 2 0.3125 0.0625 0.8125
36 1 0.5625 0.1875 0.9375
100 1 0.6875 0.1875 0.8125
164 1 0.6875 0.0625 0.9375
228 2 0.5625 0.0625 0.8125
52 1 0.8125 0.1875 0.9375
116 1 0.9375 0.1875 0.8125
180 1 0.9375 0.0625 0.9375
244 2 0.8125 0.0625 0.8125
8 1 0.0625 0.4375 0.9375
72 1 0.1875 0.4375 0.8125
136 1 0.1875 0.3125 0.9375
200 2 0.0625 0.3125 0.8125
24 1 0.3125 0.4375 0.9375
88 1 0.4375 0.4375 0.8125
152 1 0.4375 0.3125 0.9375
216 2 0.3125 0.3125 0.8125
40 1 0.5625 0.4375 0.9375
104 1 0.6875 0.4375 0.8125
168 1 0.6875 0.3125 0.9375
232 2 0.5625 0.3125 0.8125
56 1 0.8125 0.4375 0.9375
120 1 0.9375 0.4375 0.8125
184 1 0.9375 0.3125 0.9375
248 2 0.8125 0.3125 0.8125
12 1 0.0625 0.6875 0.9375
76 1 0.1875 0.6875 0.8125
140 1 0.1875 0.5625 0.9375
204 2 0.0625 0.5625 0.8125
28 1 0.3125 0.6875 0.9375
92 1 0.4375 0.6875 0.8125
156 1 0.4375 0.5625 0.9375
220 2 0.3125 0.5625 0.8125
44 1 0.5625 0.6875 0.9375
108 1 0.6875 0.6875 0.8125
172 1 0.6875 0.5625 0.9375
236 2 0.5625 0.5625 0.8125
60 1 0.8125 0.6875 0.9375
124 1 0.9375 0.6875 0.8125
188 1 0.9375 0.5625 0.9375
252 2 0.8125 0.5625 0.8125
16 1 0.0625 0.9375 0.9375
80 1 0.1875 0.9375 0.8125
144 1 0.1875 0.8125 0.9375
208 2 0.0625 0.8125 0.8125
32 1 0.3125 0.9375 0.9375
96 1 0.4375 0.9375 0.8125
160 1 0.4375 0.8125 0.9375
224 2 0.3125 0.8125 0.8125
48 1 0.5625 0.9375 0.9375
112 1 0.6875 0.9375 0.8125
176 1 0.6875 0.8125 0.9375
240 2 0.5625 0.8125 0.8125
64 1 0.8125 0.9375 0.9375
128 1 0.9375 0.9375 0.8125
192 1 0.9375 0.8125 0.9375
256 2 0.8125 0.8125 0.8125
ITEM: TIMESTEP
400
ITEM: NUMBER OF ATOMS
256
ITEM: BOX BOUNDS pp pp pp
-9.3000000000000005e-01 1.3670000000000000e+01
-9.3000000000000005e-01 1.3670000000000000e+01
-9.3000000000000005e-01 1.3670000000000000e+01
ITEM: ATOMS id type xs ys zs
1 1 0.0625 0.1875 0.1875
65 1 0.1875 0.1875 0.0625
129 1 0.1875 0.0625 0.1875
193 2 0.0625 0.0625 0.0625
17 1 0.3125 0.1875 0.1875
81 1 0.4375 0.1875 0.0625
145 1 0.4375 0.0625 0.1875
209 2 0.3125 0.0625 0.0625
33 1 0.5625 0.1875 0.1875
97 1 0.6875 0.1875 0.0625
161 1 0.6875 0.0625 0.1875
225 2 0.5625 0.0625 0.0625
49 1 0.8125 0.1875 0.1875
113 1 0.9375 0.1875 0.0625
177 1 0.9375 0.0625 0.1875
241 2 0.8125 0.0625 0.0625
5 1 0.0625 0.4375 0.1875
69 1 0.1875 0.4375 0.0625
133 1 0.1875 0.3125 0.1875
197 2 0.0625 0.3125 0.0625
21 1 0.3125 0.4375 0.1875
85 1 0.4375 0.4375 0.0625
149 1 0.4375 0.3125 0.1875
213 2 0.3125 0.3125 0.0625
37 1 0.5625 0.4375 0.1875
101 1 0.6875 0.4375 0.0625
165 1 0.6875 0.3125 0.1875
229 2 0.5625 0.3125 0.0625
53 1 0.8125 0.4375 0.1875
117 1 0.9375 0.4375 0.0625
181 1 0.9375 0.3125 0.1875
245 2 0.8125 0.3125 0.0625
9 1 0.0625 0.6875 0.1875
73 1 0.1875 0.6875 0.0625
137 1 0.1875 0.5625 0.1875
201 2 0.0625 0.5625 0.0625
25 1 0.3125 0.6875 0.1875
89 1 0.4375 0.6875 0.0625
153 1 0.4375 0.5625 0.1875
217 2 0.3125 0.5625 0.0625
41 1 0.5625 0.6875 0.1875
105 1 0.6875 0.6875 0.0625
169 1 0.6875 0.5625 0.1875
233 2 0.5625 0.5625 0.0625
57 1 0.8125 0.6875 0.1875
121 1 0.9375 0.6875 0.0625
185 1 0.9375 0.5625 0.1875
249 2 0.8125 0.5625 0.0625
13 1 0.0625 0.9375 0.1875
77 1 0.1875 0.9375 0.0625
141 1 0.1875 0.8125 0.1875
205 2 0.0625 0.8125 0.0625
29 1 0.3125 0.9375 0.1875
93 1 0.4375 0.9375 0.0625
157 1 0.4375 0.8125 0.1875
221 2 0.3125 0.8125 0.0625
45 1 0.5625 0.9375 0.1875
109 1 0.6875 0.9375 0.0625
173 1 0.6875 0.8125 0.1875