ITEM: TIMESTEP
0
ITEM: NUMBER OF ATOMS
64
ITEM: BOX BOUNDS pp pp pp
-4.0700010000000004e+00 1.2130000000000001e+01
-4.0700010000000004e+00 1.2130000000000001e+01
-4.0700010000000004e+00 1.2130000000000001e+01
ITEM: ATOMS id type xs ys zs
1 2 0.458456 0.416912 0.313426
9 2 0.292778 0.458456 0.437809
17 2 0.334322 0.292778 0.313426
25 2 0.292778 0.334322 0.437809
33 2 0.458456 0.292778 0.313426
41 2 0.416912 0.458456 0.437809
49 1 0.334156 0.417078 0.313426
57 1 0.417078 0.334156 0.437809
5 2 0.707222 0.416912 0.313426
13 2 0.541544 0.458456 0.437809
21 2 0.583088 0.292778 0.313426
29 2 0.541544 0.334322 0.437809
37 2 0.707222 0.292778 0.313426
45 2 0.665678 0.458456 0.437809
53 1 0.582922 0.417078 0.313426
61 1 0.665844 0.334156 0.437809
3 2 0.458456 0.665678 0.313426
11 2 0.292778 0.707222 0.437809
19 2 0.334322 0.541544 0.313426
27 2 0.292778 0.583088 0.437809
35 2 0.458456 0.541544 0.313426
43 2 0.416912 0.707222 0.437809
51 1 0.334156 0.665844 0.313426
59 1 0.417078 0.582922 0.437809
7 2 0.707222 0.665678 0.313426
15 2 0.541544 0.707222 0.437809
23 2 0.583088 0.541544 0.313426
31 2 0.541544 0.583088 0.437809
39 2 0.707222 0.541544 0.313426
47 2 0.665678 0.707222 0.437809
55 1 0.582922 0.665844 0.313426
63 1 0.665844 0.582922 0.437809
2 2 0.458456 0.416912 0.562191
10 2 0.292778 0.458456 0.686574
18 2 0.334322 0.292778 0.562191
26 2 0.292778 0.334322 0.686574
34 2 0.458456 0.292778 0.562191
42 2 0.416912 0.458456 0.686574
50 1 0.334156 0.417078 0.562191
58 1 0.417078 0.334156 0.686574
6 2 0.707222 0.416912 0.562191
14 2 0.541544 0.458456 0.686574
22 2 0.583088 0.292778 0.562191
30 2 0.541544 0.334322 0.686574
38 2 0.707222 0.292778 0.562191
46 2 0.665678 0.458456 0.686574
54 1 0.582922 0.417078 0.562191
62 1 0.665844 0.334156 0.686574
4 2 0.458456 0.665678 0.562191
12 2 0.292778 0.707222 0.686574
20 2 0.334322 0.541544 0.562191
28 2 0.292778 0.583088 0.686574
36 2 0.458456 0.541544 0.562191
44 2 0.416912 0.707222 0.686574
52 1 0.334156 0.665844 0.562191
60 1 0.417078 0.582922 0.686574
8 2 0.707222 0.665678 0.562191
16 2 0.541544 0.707222 0.686574
24 2 0.583088 0.541544 0.562191
32 2 0.541544 0.583088 0.686574
40 2 0.707222 0.541544 0.562191
48 2 0.665678 0.707222 0.686574
56 1 0.582922 0.665844 0.562191
64 1 0.665844 0.582922 0.686574
ITEM: TIMESTEP
100
ITEM: NUMBER OF ATOMS
64
ITEM: BOX BOUNDS pp pp pp
-4.0700010000000004e+00 1.2130000000000001e+01
-4.0700010000000004e+00 1.2130000000000001e+01
-4.0700010000000004e+00 1.2130000000000001e+01
ITEM: ATOMS id type xs ys zs
1 2 0.387639 0.433774 0.391545
9 2 0.386658 0.465543 0.534381
17 2 0.363815 0.414401 0.409866
25 2 0.380618 0.420311 0.467518
33 2 0.584327 0.359779 0.322798
41 2 0.4506 0.488829 0.435327
49 1 0.399356 0.356356 0.329299
57 1 0.429404 0.42679 0.43353
5 2 0.718407 0.396702 0.376049
13 2 0.543711 0.454768 0.375113
21 2 0.60843 0.303137 0.385415
29 2 0.466228 0.396868 0.449652
37 2 0.691203 0.318244 0.373012
45 2 0.608472 0.518702 0.410136
53 1 0.623026 0.365232 0.446059
61 1 0.641608 0.327955 0.459716
3 2 0.438788 0.604389 0.400188
11 2 0.348276 0.610803 0.430027
19 2 0.381583 0.561945 0.410799
27 2 0.3325 0.573039 0.51132
35 2 0.436626 0.545663 0.338887
43 2 0.476448 0.667466 0.55974
51 1 0.434805 0.621945 0.356455
59 1 0.32903 0.657315 0.51849
7 2 0.608071 0.629497 0.395659
15 2 0.533197 0.602446 0.52518
23 2 0.516217 0.545495 0.376776
31 2 0.493509 0.606817 0.499351
39 2 0.637034 0.512584 0.403882
47 2 0.529264 0.666362 0.46717
55 1 0.628361 0.604188 0.295869
63 1 0.592956 0.529925 0.447474
2 2 0.528984 0.407004 0.518357
10 2 0.337891 0.529068 0.586544
18 2 0.425868 0.381161 0.565878
26 2 0.334958 0.393263 0.569729
34 2 0.458726 0.406678 0.522144
42 2 0.436206 0.497908 0.64467
50 1 0.397148 0.398769 0.606605
58 1 0.35841 0.404668 0.677903
6 2 0.682239 0.464689 0.430361
14 2 0.546805 0.46814 0.671709
22 2 0.551249 0.371657 0.460644
30 2 0.536569 0.351007 0.569136
38 2 0.712361 0.278809 0.530293
46 2 0.642455 0.456034 0.582191
54 1 0.610751 0.375426 0.483749
62 1 0.626111 0.431202 0.636529
4 2 0.510358 0.613267 0.558869
12 2 0.280605 0.713463 0.647513
20 2 0.382252 0.508591 0.574983
28 2 0.333377 0.548898 0.586468
36 2 0.474871 0.529616 0.604693
44 2 0.403541 0.730548 0.58426
52 1 0.339789 0.621057 0.601268
60 1 0.4159 0.558209 0.640259
8 2 0.661613 0.513729 0.509625
16 2 0.473027 0.688841 0.561854
24 2 0.574553 0.464244 0.47521
32 2 0.423107 0.525391 0.685019
40 2 0.628798 0.50823 0.512682
48 2 0.600891 0.646596 0.670851
56 1 0.706312 0.582291 0.521052
64 1 0.604109 0.644278 0.672273
ITEM: TIMESTEP
200
ITEM: NUMBER OF ATOMS
64
ITEM: BOX BOUNDS pp pp pp
-4.0700010000000004e+00 1.2130000000000001e+01
-4.0700010000000004e+00 1.2130000000000001e+01
-4.0700010000000004e+00 1.2130000000000001e+01
ITEM: ATOMS id type xs ys zs
1 2 0.357774 0.43433 0.407288
9 2 0.399627 0.46147 0.544392
17 2 0.350912 0.428105 0.426563
25 2 0.380708 0.420946 0.469278
33 2 0.637014 0.348158 0.322621
41 2 0.4447 0.49178 0.422979
49 1 0.430957 0.31408 0.318973
57 1 0.41053 0.444976 0.450111
5 2 0.715352 0.37494 0.378561
13 2 0.541414 0.451767 0.370738
21 2 0.677799 0.314181 0.412106
29 2 0.438229 0.404459 0.440553
37 2 0.667854 0.293648 0.368854
45 2 0.593949 0.501455 0.422438
53 1 0.65067 0.330328 0.449104
61 1 0.661859 0.354584 0.450878
3 2 0.431766 0.59713 0.379969
11 2 0.341962 0.619576 0.386256
19 2 0.399909 0.568235 0.36178
27 2 0.311965 0.565608 0.513203
35 2 0.428296 0.564309 0.346261
43 2 0.484664 0.678868 0.577879
51 1 0.446152 0.631387 0.352971
59 1 0.294083 0.696328 0.53696
7 2 0.565244 0.649673 0.383242
15 2 0.556716 0.600149 0.544551
23 2 0.527353 0.557252 0.398354
31 2 0.491073 0.632949 0.499943
39 2 0.626554 0.517436 0.404101
47 2 0.496689 0.668428 0.494735
55 1 0.638555 0.603776 0.311417
63 1 0.577464 0.51141 0.442965
2 2 0.529505 0.393059 0.518731
10 2 0.336226 0.553399 0.572095
18 2 0.439073 0.388596 0.571277
26 2 0.331224 0.384651 0.584181
34 2 0.437026 0.414913 0.54009
42 2 0.427564 0.501054 0.644315
50 1 0.401669 0.389352 0.612642
58 1 0.365042 0.416652 0.693731
6 2 0.707232 0.507137 0.394408
14 2 0.574001 0.457565 0.670606
22 2 0.535463 0.356956 0.414569
30 2 0.531061 0.331583 0.555904
38 2 0.74779 0.250863 0.531095
46 2 0.633087 0.425385 0.566147
54 1 0.637455 0.381175 0.487032
62 1 0.615563 0.429751 0.647747
4 2 0.51885 0.614386 0.576759
12 2 0.263065 0.734379 0.678382
20 2 0.393909 0.518035 0.592162
28 2 0.323346 0.572348 0.558107
36 2 0.477483 0.506231 0.620904
44 2 0.370893 0.738025 0.579591
52 1 0.348155 0.638254 0.597405
60 1 0.420515 0.546218 0.662512
8 2 0.675426 0.496338 0.513378
16 2 0.447943 0.706702 0.526823
24 2 0.56654 0.474196 0.443507
32 2 0.405687 0.530388 0.681866
40 2 0.619485 0.481353 0.498651
48 2 0.605669 0.622107 0.678909
56 1 0.714276 0.547227 0.520894
64 1 0.621987 0.660001 0.675556
ITEM: TIMESTEP
300
ITEM: NUMBER OF ATOMS
64
ITEM: BOX BOUNDS pp pp pp
-4.0700010000000004e+00 1.2130000000000001e+01
-4.0700010000000004e+00 1.2130000000000001e+01
-4.0700010000000004e+00 1.2130000000000001e+01
ITEM: ATOMS id type xs ys zs
1 2 0.343348 0.436934 0.40534
9 2 0.398249 0.451696 0.539716
17 2 0.350896 0.434568 0.432964
25 2 0.366532 0.414784 0.4781
33 2 0.69595 0.343893 0.359445
41 2 0.446611 0.502943 0.433232
49 1 0.414183 0.295307 0.318245
57 1 0.401226 0.442901 0.459982
5 2 0.704836 0.342626 0.413469
13 2 0.543657 0.458833 0.387856
21 2 0.711236 0.333004 0.402434
29 2 0.429429 0.395449 0.434184
37 2 0.636015 0.284468 0.403205
45 2 0.596837 0.495672 0.421083
53 1 0.64956 0.320684 0.4391
61 1 0.655552 0.368645 0.438534
3 2 0.434277 0.598736 0.367175
11 2 0.373202 0.612621 0.356218
19 2 0.397608 0.563308 0.361987
27 2 0.286415 0.569999 0.52657
35 2 0.419049 0.568852 0.368553
43 2 0.449262 0.699393 0.660187
51 1 0.455474 0.639336 0.356397
59 1 0.273343 0.705565 0.552021
7 2 0.565971 0.64984 0.384638
15 2 0.62137 0.588526 0.54684
23 2 0.549823 0.54827 0.408915
31 2 0.477037 0.666207 0.50528
39 2 0.627024 0.51502 0.411014
47 2 0.485594 0.686471 0.499354
55 1 0.624085 0.597823 0.313899
63 1 0.560927 0.487205 0.40125
2 2 0.525128 0.377707 0.514774
10 2 0.329829 0.563982 0.571303
18 2 0.438555 0.418479 0.568682
26 2 0.325359 0.384995 0.580592
34 2 0.436034 0.441786 0.528117
42 2 0.442881 0.509345 0.624206
50 1 0.401765 0.382513 0.608914
58 1 0.371778 0.419724 0.691794
6 2 0.731979 0.529835 0.38804
14 2 0.592561 0.447091 0.669187
22 2 0.519169 0.343915 0.406863
30 2 0.532028 0.320316 0.549387
38 2 0.767587 0.236096 0.478055
46 2 0.632955 0.400121 0.564109
54 1 0.6805 0.397202 0.507786
62 1 0.612835 0.425952 0.654805
4 2 0.520064 0.602688 0.585362
12 2 0.254803 0.746804 0.695442
20 2 0.435762 0.51036 0.591512
28 2 0.319424 0.596678 0.54693
36 2 0.482933 0.506394 0.597689
44 2 0.338951 0.753069 0.561581
52 1 0.34583 0.643672 0.601144
60 1 0.400899 0.529127 0.665846
8 2 0.696414 0.481725 0.529542
16 2 0.426157 0.707839 0.516388
24 2 0.544396 0.45995 0.394483
32 2 0.378873 0.521651 0.689525
40 2 0.62777 0.473596 0.497565
48 2 0.609662 0.626553 0.640156
56 1 0.709558 0.532499 0.531851
64 1 0.622983 0.688756 0.661186
ITEM: TIMESTEP
400
ITEM: NUMBER OF ATOMS
64
ITEM: BOX BOUNDS pp pp pp
-4.0700010000000004e+00 1.2130000000000001e+01
-4.0700010000000004e+00 1.2130000000000001e+01
-4.0700010000000004e+00 1.2130000000000001e+01
ITEM: ATOMS id type xs ys zs
1 2 0.344451 0.440265 0.402381
9 2 0.404235 0.45342 0.540316
17 2 0.348183 0.437385 0.432045
25 2 0.369516 0.413239 0.478197
33 2 0.700358 0.348517 0.353199
41 2 0.444358 0.505924 0.43286
49 1 0.402799 0.294517 0.315213
57 1 0.407688 0.437757 0.45866
5 2 0.695724 0.317851 0.433484
13 2 0.542813 0.449055 0.386322
21 2 0.712954 0.336499 0.397544
29 2 0.435105 0.386691 0.433578
37 2 0.64569 0.288361 0.405802
45 2 0.602102 0.500123 0.420679
53 1 0.648073 0.317236 0.43554
61 1 0.654616 0.366426 0.44049
3 2 0.434929 0.596918 0.364342
11 2 0.379866 0.611636 0.35249
19 2 0.395786 0.562157 0.370606
27 2 0.278761 0.582484 0.547151
35 2 0.419451 0.564292 0.366395
43 2 0.441173 0.690457 0.676015
51 1 0.452634 0.643958 0.357019
59 1 0.273305 0.710885 0.553257
7 2 0.569598 0.645248 0.391434
15 2 0.642995 0.582585 0.557621
23 2 0.551629 0.544114 0.410007
31 2 0.465621 0.678755 0.504261
39 2 0.629698 0.513963 0.422964
47 2 0.472889 0.694656 0.498939
55 1 0.629041 0.600342 0.310657
63 1 0.549944 0.480635 0.39284
2 2 0.522774 0.37314 0.517127
10 2 0.322826 0.566591 0.570327
18 2 0.439811 0.422032 0.569142
26 2 0.321716 0.387355 0.572883
34 2 0.430703 0.445427 0.518569
42 2 0.451305 0.514199 0.614087
50 1 0.40063 0.375644 0.606636
58 1 0.380333 0.428472 0.691426
6 2 0.736545 0.533329 0.38504
14 2 0.597222 0.442339 0.669168
22 2 0.514339 0.339218 0.400239
30 2 0.536716 0.319025 0.55402
38 2 0.76818 0.232893 0.467893
46 2 0.629544 0.391914 0.561273
54 1 0.701633 0.397749 0.503716
62 1 0.609675 0.428722 0.658102
4 2 0.513053 0.599169 0.5984
12 2 0.253767 0.749939 0.69729
20 2 0.446439 0.510104 0.586225
28 2 0.317552 0.597297 0.547717
36 2 0.484903 0.510906 0.590467
44 2 0.323589 0.766239 0.555657
52 1 0.347422 0.641076 0.605626
60 1 0.39922 0.531733 0.668013
8 2 0.698958 0.478147 0.529507
16 2 0.42591 0.704768 0.516746
24 2 0.544693 0.457756 0.392785
32 2 0.375894 0.511153 0.692789
40 2 0.626828 0.473256 0.496775
48 2 0.604311 0.653833 0.61504
56 1 0.710616 0.525169 0.545921
64 1 0.61691 0.695057 0.659091
ITEM: TIMESTEP
500
ITEM: NUMBER OF ATOMS
64
ITEM: BOX BOUNDS pp pp pp
-4.0700010000000004e+00 1.2130000000000001e+01
-4.0700010000000004e+00 1.2130000000000001e+01
-4.0700010000000004e+00 1.2130000000000001e+01
ITEM: ATOMS id type xs ys zs
1 2 0.343569 0.439066 0.400064
9 2 0.40357 0.454155 0.540355
17 2 0.349474 0.436425 0.432411
25 2 0.369156 0.413308 0.478076
33 2 0.703621 0.355376 0.356618
41 2 0.442748 0.508918 0.425004
49 1 0.399668 0.293737 0.316384
57 1 0.403787 0.440002 0.461386
5 2 0.691995 0.313329 0.436667
13 2 0.542266 0.445052 0.387604
21 2 0.718276 0.338744 0.393885
29 2 0.431914 0.386302 0.435097
37 2 0.653163 0.286577 0.413028
45 2 0.604416 0.507052 0.424469
53 1 0.646653 0.313759 0.436304
61 1 0.651478 0.364611 0.440636
3 2 0.435989 0.593046 0.355817
11 2 0.380083 0.611875 0.352735
19 2 0.401074 0.564155 0.370586
27 2 0.278541 0.58607 0.558867
35 2 0.420856 0.564846 0.366137
43 2 0.438951 0.689025 0.674867
51 1 0.447949 0.649669 0.356996
59 1 0.274606 0.711884 0.552996
7 2 0.573126 0.644288 0.393562
15 2 0.64704 0.57636 0.560161
23 2 0.549724 0.539905 0.405781
31 2 0.457192 0.686995 0.504644
39 2 0.634335 0.519846 0.432038
47 2 0.46496 0.697959 0.500878
55 1 0.63236 0.599172 0.304735
63 1 0.546901 0.480083 0.385836
2 2 0.523416 0.376744 0.520773
10 2 0.319554 0.56565 0.568104
18 2 0.437964 0.423511 0.569003
26 2 0.319687 0.390406 0.572323
34 2 0.428853 0.445613 0.51843
42 2 0.454202 0.515837 0.611073
50 1 0.395764 0.373742 0.606081
58 1 0.388283 0.426051 0.692499
6 2 0.737875 0.537982 0.387236
14 2 0.597379 0.438408 0.671584
22 2 0.513782 0.338758 0.396514
30 2 0.533063 0.317163 0.557279
38 2 0.767271 0.226024 0.458888
46 2 0.628293 0.386496 0.564355
54 1 0.723351 0.411366 0.502432
62 1 0.607947 0.425969 0.661855
4 2 0.512556 0.595619 0.60147
12 2 0.25375 0.751389 0.696896
20 2 0.45143 0.509438 0.586935
28 2 0.315236 0.594744 0.545909
36 2 0.483742 0.511732 0.590701
44 2 0.314142 0.773675 0.554939
52 1 0.345932 0.640903 0.609798
60 1 0.398437 0.533083 0.668314
8 2 0.69853 0.475092 0.530982
16 2 0.426146 0.702594 0.513756
24 2 0.542666 0.455784 0.389601
32 2 0.378839 0.509156 0.695971
40 2 0.623202 0.471407 0.488041
48 2 0.602753 0.659847 0.605642
56 1 0.719217 0.510802 0.553254
64 1 0.617302 0.69343 0.654739
ITEM: TIMESTEP
600
ITEM: NUMBER OF ATOMS
64
ITEM: BOX BOUNDS pp pp pp
-4.0700010000000004e+00 1.2130000000000001e+01
-4.0700010000000004e+00 1.2130000000000001e+01
-4.0700010000000004e+00 1.2130000000000001e+01
ITEM: ATOMS id type xs ys zs
1 2 0.343212 0.438678 0.399724
9 2 0.403447 0.453794 0.540263
17 2 0.349376 0.436287 0.431967
25 2 0.369694 0.41239 0.477481
33 2 0.705706 0.358609 0.354819
41 2 0.440676 0.511388 0.420402
49 1 0.39696 0.293043 0.317588
57 1 0.403531 0.440388 0.461309
5 2 0.690489 0.31134 0.438667
13 2 0.542134 0.444697 0.387612
21 2 0.718042 0.339688 0.395696
29 2 0.428855 0.385928 0.43585
37 2 0.6583 0.290365 0.415051
45 2 0.606711 0.510744 0.424812
53 1 0.643599 0.313774 0.43978
61 1 0.651361 0.364716 0.441977
3 2 0.435757 0.591643 0.353267
11 2 0.380714 0.611163 0.351887
19 2 0.401512 0.564005 0.369548
27 2 0.278121 0.587766 0.562906
35 2 0.420894 0.564634 0.36616
43 2 0.438552 0.689187 0.672151
51 1 0.446768 0.653664 0.357065
59 1 0.27513 0.711742 0.552599
7 2 0.573917 0.643874 0.39358
15 2 0.648902 0.574888 0.561153
23 2 0.549955 0.538946 0.405796
31 2 0.453458 0.691311 0.505061
39 2 0.634637 0.519999 0.437522
47 2 0.460673 0.699144 0.502411
55 1 0.634569 0.597431 0.300405
63 1 0.54682 0.480459 0.385234
2 2 0.52259 0.375069 0.520743
10 2 0.318665 0.564663 0.567242
18 2 0.437342 0.423357 0.568887
26 2 0.318284 0.392014 0.572817
34 2 0.428709 0.445771 0.518301
42 2 0.455373 0.5173 0.608938
50 1 0.394023 0.372611 0.605697
58 1 0.39225 0.424126 0.692689
6 2 0.738934 0.540036 0.387647
14 2 0.597883 0.436578 0.672209
22 2 0.513372 0.33883 0.394425
30 2 0.531693 0.316235 0.556326
38 2 0.765969 0.227171 0.456313
46 2 0.627632 0.384706 0.569067
54 1 0.730141 0.411048 0.500384
62 1 0.606833 0.425704 0.663684
4 2 0.513808 0.593504 0.603245
12 2 0.25397 0.752007 0.696267
20 2 0.454225 0.507749 0.586663
28 2 0.313936 0.593158 0.545298
36 2 0.482821 0.511409 0.59194
44 2 0.309184 0.775932 0.555553
52 1 0.345725 0.641083 0.612504
60 1 0.398114 0.533701 0.667528
8 2 0.698404 0.475749 0.53188
16 2 0.426244 0.701779 0.513187
24 2 0.542352 0.45537 0.389335
32 2 0.380606 0.508833 0.696869
40 2 0.621436 0.473959 0.485539
48 2 0.603666 0.660393 0.600599
56 1 0.724302 0.500767 0.555369
64 1 0.619045 0.693702 0.653112
ITEM: TIMESTEP
700
ITEM: NUMBER OF ATOMS
64
ITEM: BOX BOUNDS pp pp pp
-4.0700010000000004e+00 1.2130000000000001e+01
-4.0700010000000004e+00 1.2130000000000001e+01
-4.0700010000000004e+00 1.2130000000000001e+01
ITEM: ATOMS id type xs ys zs
1 2 0.342966 0.438048 0.399408
9 2 0.402832 0.45404 0.540032
17 2 0.349273 0.435732 0.430932
25 2 0.370556 0.41163 0.477097
33 2 0.7077 0.360452 0.353373
41 2 0.439868 0.512592 0.415402
49 1 0.394335 0.291882 0.319013
57 1 0.403353 0.440826 0.461009
5 2 0.689169 0.310761 0.44064
13 2 0.542101 0.443942 0.387104
21 2 0.717653 0.340205 0.397907
29 2 0.42593 0.385574 0.43633
37 2 0.661458 0.293291 0.41704
45 2 0.60841 0.512904 0.424263
53 1 0.641104 0.31464 0.442207
61 1 0.651138 0.365077 0.443716
3 2 0.436659 0.5917 0.353917
11 2 0.381614 0.610752 0.351104
19 2 0.402527 0.563999 0.368474
27 2 0.277927 0.5891 0.566464
35 2 0.422457 0.564531 0.366003
43 2 0.438686 0.690119 0.669319
51 1 0.445624 0.657918 0.357563
59 1 0.275642 0.711011 0.552235
7 2 0.574842 0.643581 0.393678
15 2 0.65149 0.572465 0.562164
23 2 0.550012 0.537997 0.405244
31 2 0.449384 0.69499 0.505799
39 2 0.63389 0.519307 0.440157
47 2 0.456541 0.700344 0.50405
55 1 0.636906 0.596462 0.296694
63 1 0.54697 0.481024 0.38444
2 2 0.521507 0.374823 0.521554
10 2 0.318558 0.563305 0.56632
18 2 0.436589 0.422975 0.569478
26 2 0.316303 0.393816 0.573053
34 2 0.428834 0.445885 0.518567
42 2 0.458072 0.516662 0.608452
50 1 0.391673 0.371671 0.605507
58 1 0.396386 0.421646 0.692325
6 2 0.739587 0.541248 0.387553
14 2 0.598788 0.434408 0.673751
22 2 0.513165 0.338944 0.391665
30 2 0.529282 0.314301 0.555676
38 2 0.765042 0.227893 0.453763
46 2 0.627114 0.383038 0.573779
54 1 0.735835 0.412437 0.497541
62 1 0.605574 0.425416 0.666398
4 2 0.515819 0.590579 0.604814
12 2 0.254265 0.752599 0.69551
20 2 0.457242 0.506408 0.586083
28 2 0.313159 0.591336 0.544512
36 2 0.482205 0.511534 0.59351
44 2 0.304133 0.777966 0.556341
52 1 0.345781 0.641474 0.615131
60 1 0.397681 0.536954 0.667159
8 2 0.69782 0.476414 0.533334
16 2 0.426421 0.701469 0.512946
24 2 0.542763 0.455051 0.389219
32 2 0.382804 0.507265 0.696406
40 2 0.61988 0.475061 0.483754
48 2 0.60337 0.661722 0.595873
56 1 0.725625 0.495499 0.556312
64 1 0.619708 0.69331 0.650938
ITEM: TIMESTEP
788
ITEM: NUMBER OF ATOMS
64
ITEM: BOX BOUNDS pp pp pp
-4.0700010000000004e+00 1.2130000000000001e+01
-4.0700010000000004e+00 1.2130000000000001e+01
-4.0700010000000004e+00 1.2130000000000001e+01
ITEM: ATOMS id type xs ys zs
1 2 0.342955 0.437988 0.399088
9 2 0.402733 0.454777 0.540564
17 2 0.349279 0.435611 0.430559
25 2 0.370719 0.411675 0.477183
33 2 0.707935 0.360621 0.352991
41 2 0.439686 0.512967 0.41502
49 1 0.393738 0.291542 0.319337
57 1 0.403485 0.441055 0.460923
5 2 0.688842 0.310697 0.441139
13 2 0.542206 0.443517 0.386764
21 2 0.717608 0.340197 0.39847
29 2 0.425279 0.385554 0.436334
37 2 0.662118 0.293608 0.417568
45 2 0.608776 0.513254 0.42402
53 1 0.640723 0.315002 0.442786
61 1 0.65104 0.365118 0.444145
3 2 0.436938 0.591994 0.354734
11 2 0.381833 0.610692 0.350997
19 2 0.4027 0.564065 0.36828
27 2 0.278073 0.589567 0.567051
35 2 0.423042 0.564481 0.365832
43 2 0.438658 0.690169 0.668779
51 1 0.445542 0.658582 0.357791
59 1 0.275731 0.710704 0.552168
7 2 0.575055 0.643466 0.39375
15 2 0.652129 0.572099 0.562439
23 2 0.550168 0.537858 0.405032
31 2 0.4486 0.695445 0.506072
39 2 0.633664 0.51913 0.440274
47 2 0.455871 0.700544 0.504434
55 1 0.637459 0.59629 0.295977
63 1 0.547099 0.481088 0.38429
2 2 0.521329 0.374857 0.521692
10 2 0.318514 0.562876 0.566163
18 2 0.436226 0.419912 0.568821
26 2 0.315503 0.393772 0.572606
34 2 0.429065 0.445651 0.518094
42 2 0.458682 0.516547 0.608381
50 1 0.391031 0.371101 0.605174
58 1 0.397269 0.421147 0.692433
6 2 0.739699 0.541296 0.387436
14 2 0.598927 0.433782 0.673685
22 2 0.513134 0.338979 0.390896
30 2 0.528731 0.313848 0.5555
38 2 0.764777 0.228029 0.453297
46 2 0.627199 0.3829 0.574659
54 1 0.736902 0.412849 0.496841
62 1 0.605171 0.42561 0.66704
4 2 0.516249 0.590091 0.605283
12 2 0.254342 0.752717 0.695319
20 2 0.457761 0.506338 0.586094
28 2 0.312935 0.590776 0.544463
36 2 0.482214 0.511618 0.593646
44 2 0.303144 0.77826 0.556516
52 1 0.345946 0.641262 0.615784
60 1 0.397478 0.539751 0.666691
8 2 0.69774 0.476559 0.533601
16 2 0.426437 0.701521 0.513039
24 2 0.542734 0.455037 0.389093
32 2 0.383197 0.507385 0.697915
40 2 0.619673 0.475337 0.483186
48 2 0.603238 0.662414 0.594927
56 1 0.725437 0.495023 0.556442
64 1 0.619635 0.693396 0.650497
