ITEM: TIMESTEP
0
ITEM: NUMBER OF ATOMS
64
ITEM: BOX BOUNDS pp pp pp
-4.0700010000000004e+00 1.2130000000000001e+01
-4.0700010000000004e+00 1.2130000000000001e+01
-4.0700010000000004e+00 1.2130000000000001e+01
ITEM: ATOMS id type xs ys zs
38 2 0.764777 0.228029 0.453297
1 2 0.342955 0.437988 0.399088
17 2 0.349279 0.435611 0.430559
25 2 0.370719 0.411675 0.477183
49 1 0.393738 0.291542 0.319337
57 1 0.403485 0.441055 0.460923
29 2 0.425279 0.385554 0.436334
33 2 0.707935 0.360621 0.352991
5 2 0.688842 0.310697 0.441139
13 2 0.542206 0.443517 0.386764
21 2 0.717608 0.340197 0.39847
37 2 0.662118 0.293608 0.417568
53 1 0.640723 0.315002 0.442786
61 1 0.65104 0.365118 0.444145
63 1 0.547099 0.481088 0.38429
22 2 0.513134 0.338979 0.390896
54 1 0.736902 0.412849 0.496841
24 2 0.542734 0.455037 0.389093
40 2 0.619673 0.475337 0.483186
41 2 0.439686 0.512967 0.41502
3 2 0.436938 0.591994 0.354734
11 2 0.381833 0.610692 0.350997
19 2 0.4027 0.564065 0.36828
35 2 0.423042 0.564481 0.365832
51 1 0.445542 0.658582 0.357791
45 2 0.608776 0.513254 0.42402
7 2 0.575055 0.643466 0.39375
23 2 0.550168 0.537858 0.405032
39 2 0.633664 0.51913 0.440274
55 1 0.637459 0.59629 0.295977
6 2 0.739699 0.541296 0.387436
9 2 0.402733 0.454777 0.540564
18 2 0.436226 0.419912 0.568821
26 2 0.315503 0.393772 0.572606
34 2 0.429065 0.445651 0.518094
50 1 0.391031 0.371101 0.605174
58 1 0.397269 0.421147 0.692433
2 2 0.521329 0.374857 0.521692
14 2 0.598927 0.433782 0.673685
30 2 0.528731 0.313848 0.5555
46 2 0.627199 0.3829 0.574659
62 1 0.605171 0.42561 0.66704
8 2 0.69774 0.476559 0.533601
56 1 0.725437 0.495023 0.556442
27 2 0.278073 0.589567 0.567051
43 2 0.438658 0.690169 0.668779
59 1 0.275731 0.710704 0.552168
31 2 0.4486 0.695445 0.506072
47 2 0.455871 0.700544 0.504434
10 2 0.318514 0.562876 0.566163
42 2 0.458682 0.516547 0.608381
20 2 0.457761 0.506338 0.586094
28 2 0.312935 0.590776 0.544463
36 2 0.482214 0.511618 0.593646
52 1 0.345946 0.641262 0.615784
60 1 0.397478 0.539751 0.666691
16 2 0.426437 0.701521 0.513039
32 2 0.383197 0.507385 0.697915
15 2 0.652129 0.572099 0.562439
4 2 0.516249 0.590091 0.605283
48 2 0.603238 0.662414 0.594927
64 1 0.619635 0.693396 0.650497
12 2 0.254342 0.752717 0.695319
44 2 0.303144 0.77826 0.556516
ITEM: TIMESTEP
100
ITEM: NUMBER OF ATOMS
64
ITEM: BOX BOUNDS pp pp pp
-4.0700010000000004e+00 1.2130000000000001e+01
-4.0700010000000004e+00 1.2130000000000001e+01
-4.0700010000000004e+00 1.2130000000000001e+01
ITEM: ATOMS id type xs ys zs
38 2 0.766186 0.234294 0.44452
1 2 0.346234 0.437337 0.398582
17 2 0.348778 0.43818 0.427438
25 2 0.372448 0.411159 0.476331
49 1 0.39334 0.286998 0.325292
57 1 0.399207 0.444013 0.453834
29 2 0.422808 0.388909 0.435153
33 2 0.717927 0.359544 0.355187
5 2 0.686267 0.309406 0.443343
13 2 0.537538 0.443285 0.395104
21 2 0.720169 0.340342 0.402005
37 2 0.665329 0.292336 0.421735
53 1 0.626557 0.309275 0.437537
61 1 0.651915 0.362232 0.454374
63 1 0.542704 0.4783 0.376733
22 2 0.511435 0.335249 0.398093
54 1 0.754706 0.402784 0.496585
24 2 0.539152 0.44302 0.376412
40 2 0.617746 0.476096 0.483658
41 2 0.438757 0.512429 0.415331
3 2 0.433715 0.599474 0.349541
11 2 0.383821 0.614504 0.346837
19 2 0.388683 0.567479 0.37003
35 2 0.422835 0.568673 0.364826
51 1 0.455073 0.658946 0.357688
45 2 0.611674 0.511722 0.429038
7 2 0.572668 0.639639 0.395338
23 2 0.558357 0.545844 0.414277
39 2 0.631657 0.518645 0.439947
55 1 0.635295 0.592125 0.295653
6 2 0.741703 0.540385 0.387765
9 2 0.416313 0.452019 0.551702
18 2 0.445357 0.413397 0.563967
26 2 0.313528 0.398395 0.5713
34 2 0.426472 0.443493 0.515124
50 1 0.388262 0.373823 0.603298
58 1 0.409526 0.409958 0.695847
2 2 0.518307 0.380985 0.515504
14 2 0.592795 0.425699 0.677165
30 2 0.523977 0.311728 0.554975
46 2 0.623653 0.386297 0.579259
62 1 0.62768 0.463922 0.666566
8 2 0.701563 0.478775 0.530961
56 1 0.734027 0.488307 0.53555
27 2 0.275922 0.597987 0.568682
43 2 0.438993 0.691197 0.666769
59 1 0.275912 0.708825 0.55234
31 2 0.447028 0.694535 0.505985
47 2 0.45524 0.698263 0.505309
10 2 0.317668 0.561284 0.565749
42 2 0.464151 0.515974 0.603196
20 2 0.452277 0.506907 0.583153
28 2 0.311508 0.588022 0.544792
36 2 0.481664 0.51268 0.591533
52 1 0.349286 0.633265 0.619192
60 1 0.37688 0.533574 0.675032
16 2 0.427186 0.70023 0.514813
32 2 0.382288 0.507737 0.701402
15 2 0.651548 0.56541 0.569031
4 2 0.515904 0.590133 0.60218
48 2 0.603777 0.665865 0.592843
64 1 0.619813 0.693775 0.643227
12 2 0.254538 0.752972 0.694771
44 2 0.300142 0.778864 0.5574
ITEM: TIMESTEP
200
ITEM: NUMBER OF ATOMS
64
ITEM: BOX BOUNDS pp pp pp
-4.0700010000000004e+00 1.2130000000000001e+01
-4.0700010000000004e+00 1.2130000000000001e+01
-4.0700010000000004e+00 1.2130000000000001e+01
ITEM: ATOMS id type xs ys zs
38 2 0.76855 0.230206 0.442382
1 2 0.348632 0.439952 0.393806
17 2 0.344868 0.444224 0.417643
25 2 0.376806 0.408106 0.471285
49 1 0.389161 0.274693 0.336594
57 1 0.39978 0.436858 0.448136
29 2 0.414333 0.395373 0.431559
33 2 0.725732 0.370467 0.342392
5 2 0.679787 0.311938 0.452369
13 2 0.532333 0.450098 0.402057
21 2 0.723511 0.339844 0.40972
37 2 0.673878 0.290861 0.434005
53 1 0.635373 0.311063 0.46287
61 1 0.643422 0.362243 0.439632
63 1 0.537064 0.471449 0.344881
22 2 0.499816 0.330278 0.413781
54 1 0.773213 0.391966 0.482729
24 2 0.530591 0.423546 0.352981
40 2 0.617239 0.475644 0.477837
41 2 0.434161 0.507451 0.415179
3 2 0.436268 0.598607 0.343373
11 2 0.388288 0.617555 0.338102
19 2 0.379546 0.570893 0.374739
35 2 0.424327 0.571411 0.366554
51 1 0.468197 0.653671 0.360034
45 2 0.612762 0.509965 0.433901
7 2 0.575307 0.628463 0.400621
23 2 0.56101 0.577265 0.420987
39 2 0.625565 0.5222 0.429475
55 1 0.631733 0.577147 0.299452
6 2 0.750572 0.543051 0.388807
9 2 0.431224 0.449788 0.559319
18 2 0.440801 0.392893 0.565115
26 2 0.306605 0.412833 0.569421
34 2 0.428222 0.442465 0.509005
50 1 0.391989 0.379867 0.600298
58 1 0.429201 0.420431 0.71124
2 2 0.51338 0.391536 0.498289
14 2 0.593766 0.42264 0.681997
30 2 0.5188 0.290915 0.551297
46 2 0.631887 0.382457 0.584137
62 1 0.624226 0.48062 0.678078
8 2 0.707056 0.474883 0.531853
56 1 0.742882 0.484905 0.534957
27 2 0.274704 0.607306 0.582612
43 2 0.439367 0.689374 0.661693
59 1 0.275763 0.705624 0.552273
31 2 0.441156 0.694878 0.507324
47 2 0.450782 0.6972 0.50816
10 2 0.316808 0.558013 0.565037
42 2 0.467837 0.512844 0.602433
20 2 0.444129 0.506273 0.589783
28 2 0.309787 0.581892 0.546467
36 2 0.486908 0.510098 0.589412
52 1 0.345678 0.638211 0.62493
60 1 0.346903 0.505026 0.678668
16 2 0.428405 0.699616 0.51627
32 2 0.37988 0.504578 0.701283
15 2 0.658972 0.572146 0.57291
4 2 0.520652 0.597338 0.607932
48 2 0.607207 0.671374 0.590656
64 1 0.619631 0.711319 0.63494
12 2 0.255021 0.753723 0.693561
44 2 0.295877 0.783742 0.558225
ITEM: TIMESTEP
300
ITEM: NUMBER OF ATOMS
64
ITEM: BOX BOUNDS pp pp pp
-4.0700010000000004e+00 1.2130000000000001e+01
-4.0700010000000004e+00 1.2130000000000001e+01
-4.0700010000000004e+00 1.2130000000000001e+01
ITEM: ATOMS id type xs ys zs
38 2 0.772405 0.23177 0.434697
1 2 0.351852 0.450159 0.396155
17 2 0.334552 0.450341 0.407628
25 2 0.386739 0.404426 0.466834
49 1 0.37893 0.273684 0.346317
57 1 0.403978 0.438036 0.445842
29 2 0.407838 0.394914 0.431163
33 2 0.728408 0.369811 0.336721
5 2 0.674284 0.312445 0.458028
13 2 0.530326 0.440604 0.407482
21 2 0.722644 0.33955 0.412921
37 2 0.674547 0.291536 0.443988
53 1 0.638683 0.304668 0.475632
61 1 0.645913 0.360949 0.430785
63 1 0.540723 0.442347 0.336634
22 2 0.490089 0.32673 0.425277
54 1 0.790748 0.389939 0.467149
24 2 0.537346 0.420312 0.343516
40 2 0.607867 0.475049 0.469703
41 2 0.428445 0.494553 0.415556
3 2 0.456038 0.592528 0.339174
11 2 0.396452 0.619346 0.330227
19 2 0.391458 0.569664 0.371573
35 2 0.4318 0.567948 0.36854
51 1 0.466454 0.644963 0.368372
45 2 0.611419 0.509786 0.435807
7 2 0.577648 0.621568 0.406824
23 2 0.56917 0.604721 0.421918
39 2 0.619224 0.525771 0.419391
55 1 0.619887 0.589587 0.320841
6 2 0.750696 0.544736 0.389135
9 2 0.431664 0.446197 0.561346
18 2 0.449846 0.384208 0.58431
26 2 0.289169 0.426542 0.565221
34 2 0.42886 0.442214 0.501164
50 1 0.409708 0.362522 0.59513
58 1 0.424515 0.435043 0.712476
2 2 0.505761 0.397692 0.475749
14 2 0.599188 0.437502 0.680868
30 2 0.507538 0.26763 0.541413
46 2 0.635194 0.39696 0.595662
62 1 0.636039 0.470336 0.687936
8 2 0.694629 0.472616 0.541634
56 1 0.733532 0.50739 0.529921
27 2 0.276764 0.611657 0.605064
43 2 0.439948 0.687167 0.659224
59 1 0.274885 0.700136 0.552894
31 2 0.436711 0.696586 0.510346
47 2 0.444765 0.69793 0.511344
10 2 0.319133 0.552636 0.56988
42 2 0.467244 0.513336 0.597009
20 2 0.444716 0.509646 0.583479
28 2 0.310095 0.575568 0.552703
36 2 0.486158 0.51389 0.582797
52 1 0.357671 0.632146 0.637644
60 1 0.360977 0.50991 0.671884
16 2 0.425536 0.698893 0.516646
32 2 0.37839 0.491753 0.705217
15 2 0.648892 0.581903 0.574272
4 2 0.532985 0.588611 0.609867
48 2 0.604717 0.670183 0.587364
64 1 0.613981 0.717797 0.621341
12 2 0.25562 0.754637 0.69198
44 2 0.294529 0.792332 0.557314
ITEM: TIMESTEP
400
ITEM: NUMBER OF ATOMS
64
ITEM: BOX BOUNDS pp pp pp
-4.0700010000000004e+00 1.2130000000000001e+01
-4.0700010000000004e+00 1.2130000000000001e+01
-4.0700010000000004e+00 1.2130000000000001e+01
ITEM: ATOMS id type xs ys zs
38 2 0.772195 0.236988 0.425216
1 2 0.362203 0.459973 0.407341
17 2 0.339512 0.461949 0.390831
25 2 0.389978 0.398778 0.459809
49 1 0.366446 0.271751 0.345
57 1 0.407244 0.442727 0.443023
29 2 0.399578 0.391637 0.440982
33 2 0.719049 0.381814 0.339149
5 2 0.66932 0.302528 0.455378
13 2 0.525632 0.413091 0.423564
21 2 0.717363 0.339051 0.416041
37 2 0.67729 0.295819 0.451344
53 1 0.657747 0.290106 0.494157
61 1 0.648888 0.360398 0.457127
63 1 0.545838 0.435449 0.324989
22 2 0.481844 0.32323 0.418932
54 1 0.807287 0.365513 0.463841
24 2 0.537059 0.412711 0.351442
40 2 0.609258 0.487665 0.461908
41 2 0.421922 0.485384 0.413664
3 2 0.475692 0.593727 0.335522
11 2 0.41248 0.626873 0.323383
19 2 0.414855 0.567979 0.360782
35 2 0.439673 0.564543 0.361772
51 1 0.462283 0.63416 0.367596
45 2 0.607818 0.512969 0.433557
7 2 0.578122 0.616033 0.40524
23 2 0.569737 0.603955 0.417523
39 2 0.607766 0.526316 0.41171
55 1 0.629951 0.617837 0.326165
6 2 0.747214 0.548986 0.392388
9 2 0.437088 0.433822 0.564191
18 2 0.445646 0.383755 0.58941
26 2 0.266855 0.441899 0.561403
34 2 0.427079 0.438779 0.502018
50 1 0.431921 0.369129 0.60162
58 1 0.409619 0.429515 0.712091
2 2 0.503056 0.390217 0.473073
14 2 0.605184 0.435908 0.704856
30 2 0.501864 0.258872 0.519762
46 2 0.645633 0.40901 0.590791
62 1 0.641805 0.493472 0.688656
8 2 0.682656 0.484641 0.531988
56 1 0.720773 0.530393 0.526903
27 2 0.282693 0.622237 0.625804
43 2 0.435984 0.686597 0.66556
59 1 0.26802 0.687283 0.55614
31 2 0.43128 0.692929 0.511128
47 2 0.442443 0.698167 0.510939
10 2 0.329084 0.545721 0.574491
42 2 0.460583 0.513639 0.591154
20 2 0.451208 0.515351 0.589945
28 2 0.314956 0.56751 0.561841
36 2 0.473506 0.514881 0.582184
52 1 0.357939 0.634125 0.645404
60 1 0.364338 0.494816 0.68689
16 2 0.419094 0.69702 0.514475
32 2 0.386194 0.49058 0.705505
15 2 0.64686 0.584235 0.568598
4 2 0.536852 0.58795 0.604984
48 2 0.599352 0.66843 0.588821
64 1 0.604299 0.725539 0.611044
12 2 0.256124 0.755535 0.690368
44 2 0.293425 0.795972 0.557131
ITEM: TIMESTEP
500
ITEM: NUMBER OF ATOMS
64
ITEM: BOX BOUNDS pp pp pp
-4.0700010000000004e+00 1.2130000000000001e+01
-4.0700010000000004e+00 1.2130000000000001e+01
-4.0700010000000004e+00 1.2130000000000001e+01
ITEM: ATOMS id type xs ys zs
38 2 0.771423 0.24315 0.415569
1 2 0.371247 0.465582 0.413678
17 2 0.351355 0.473217 0.39088
25 2 0.377972 0.397655 0.449272
49 1 0.351869 0.278938 0.362093
57 1 0.394377 0.448814 0.452845
29 2 0.379424 0.401321 0.454861
33 2 0.716368 0.391626 0.344461
5 2 0.669214 0.295154 0.448309
13 2 0.525163 0.409364 0.435515
21 2 0.712585 0.342384 0.421297
37 2 0.680325 0.297996 0.447006
53 1 0.650963 0.271266 0.515386
61 1 0.644965 0.363147 0.457302
63 1 0.55562 0.430626 0.327393
22 2 0.485287 0.321178 0.400441
54 1 0.823812 0.328698 0.435108
24 2 0.539848 0.399093 0.353331
40 2 0.608269 0.510482 0.444689
41 2 0.414542 0.477694 0.417313
3 2 0.485266 0.589265 0.324327
11 2 0.418324 0.633221 0.313813
19 2 0.420585 0.565892 0.34906
35 2 0.442429 0.562563 0.354766
51 1 0.453332 0.623323 0.3653
45 2 0.612007 0.520891 0.435043
7 2 0.582309 0.60705 0.404525
23 2 0.570179 0.588357 0.417378
39 2 0.604971 0.52727 0.415036
55 1 0.649731 0.627191 0.331936
6 2 0.766332 0.554722 0.403207
9 2 0.44938 0.425129 0.57152
18 2 0.446891 0.380564 0.600259
26 2 0.257835 0.467408 0.563287
34 2 0.434821 0.438161 0.505879
50 1 0.483831 0.376414 0.606778
58 1 0.400539 0.43078 0.709945
2 2 0.498192 0.383157 0.47646
14 2 0.598816 0.44525 0.703801
30 2 0.494536 0.259029 0.502613
46 2 0.643746 0.410654 0.590147
62 1 0.657348 0.516117 0.6895
8 2 0.664545 0.488377 0.540995
56 1 0.728198 0.544484 0.529194
27 2 0.288391 0.633667 0.636777
43 2 0.433524 0.683216 0.675127
59 1 0.267589 0.670527 0.56248
31 2 0.424863 0.685503 0.505508
47 2 0.440909 0.693625 0.504206
10 2 0.335908 0.535333 0.585395
42 2 0.455439 0.507805 0.589118
20 2 0.451239 0.515619 0.602012
28 2 0.314076 0.564035 0.570584
36 2 0.473465 0.506959 0.578688
52 1 0.351312 0.629525 0.640176
60 1 0.371785 0.491879 0.677708
16 2 0.412674 0.691315 0.507247
32 2 0.391291 0.486887 0.700489
15 2 0.645332 0.589477 0.565063
4 2 0.529016 0.588576 0.611165
48 2 0.592603 0.667742 0.589435
64 1 0.591926 0.729278 0.600677
12 2 0.256463 0.755203 0.687577
44 2 0.293681 0.794749 0.556478
ITEM: TIMESTEP
600
ITEM: NUMBER OF ATOMS
64
ITEM: BOX BOUNDS pp pp pp
-4.0700010000000004e+00 1.2130000000000001e+01
-4.0700010000000004e+00 1.2130000000000001e+01
-4.0700010000000004e+00 1.2130000000000001e+01
ITEM: ATOMS id type xs ys zs
38 2 0.760409 0.249516 0.417155
1 2 0.377531 0.46476 0.415219
17 2 0.350999 0.476222 0.4083
25 2 0.364513 0.407912 0.443076
49 1 0.347963 0.261639 0.403476
57 1 0.368295 0.453774 0.455558
29 2 0.364173 0.406844 0.447709
33 2 0.72574 0.395877 0.342308
5 2 0.67015 0.293541 0.443468
13 2 0.531766 0.419007 0.435903
21 2 0.712328 0.354268 0.424746
37 2 0.679324 0.305909 0.438668
53 1 0.652079 0.258195 0.519376
61 1 0.644076 0.355977 0.452377
63 1 0.542647 0.433646 0.30416
22 2 0.485369 0.32392 0.387764
54 1 0.824826 0.296485 0.394644
24 2 0.536645 0.400717 0.33583
40 2 0.616938 0.518238 0.448199
41 2 0.41852 0.470003 0.430464
3 2 0.487047 0.581999 0.307999
11 2 0.418156 0.632029 0.308181
19 2 0.42109 0.55822 0.347194
35 2 0.442547 0.552617 0.353503
51 1 0.434968 0.60254 0.362701
45 2 0.614983 0.537639 0.439088
7 2 0.58414 0.601534 0.413103
23 2 0.57662 0.580498 0.416804
39 2 0.613884 0.530332 0.42637
55 1 0.674628 0.63649 0.342516
6 2 0.773768 0.55572 0.415712
9 2 0.455837 0.421275 0.57471
18 2 0.452959 0.361421 0.603729
26 2 0.25734 0.503019 0.565818
34 2 0.442742 0.438244 0.514213
50 1 0.466582 0.377196 0.601043
58 1 0.392002 0.416824 0.706857
2 2 0.502488 0.378011 0.47063
14 2 0.595478 0.45219 0.713549
30 2 0.492025 0.266194 0.489592
46 2 0.641906 0.40253 0.595443
62 1 0.648834 0.529553 0.699685
8 2 0.675421 0.482641 0.548011
56 1 0.728818 0.548131 0.536907
27 2 0.291888 0.639931 0.644238
43 2 0.436489 0.677912 0.680594
59 1 0.255196 0.659907 0.564458
31 2 0.417929 0.678435 0.497351
47 2 0.434155 0.684747 0.494872
10 2 0.337243 0.530579 0.597339
42 2 0.453469 0.506864 0.591334
20 2 0.449897 0.510736 0.597372
28 2 0.311079 0.565278 0.580393
36 2 0.480206 0.504362 0.574256
52 1 0.341292 0.623866 0.636986
60 1 0.363973 0.493647 0.674529
16 2 0.410049 0.682131 0.497357
32 2 0.392393 0.488124 0.707245
15 2 0.637931 0.588011 0.567785
4 2 0.529375 0.596196 0.609863
48 2 0.591132 0.675152 0.583647
64 1 0.582284 0.732001 0.583595
12 2 0.25678 0.752647 0.68397
44 2 0.295626 0.79504 0.551664
ITEM: TIMESTEP
700
ITEM: NUMBER OF ATOMS
64
ITEM: BOX BOUNDS pp pp pp
-4.0700010000000004e+00 1.2130000000000001e+01
-4.0700010000000004e+00 1.2130000000000001e+01
-4.0700010000000004e+00 1.2130000000000001e+01
ITEM: ATOMS id type xs ys zs
38 2 0.750617 0.250468 0.422529
1 2 0.378221 0.467143 0.420601
17 2 0.350184 0.476415 0.408211
25 2 0.360118 0.418575 0.44725
49 1 0.361879 0.235589 0.428307
57 1 0.330912 0.46553 0.477507
29 2 0.358342 0.405012 0.447556
33 2 0.728019 0.400377 0.331707
5 2 0.667923 0.300144 0.430649
13 2 0.536153 0.421267 0.435583
21 2 0.716023 0.360485 0.417854
37 2 0.682567 0.318679 0.430786
53 1 0.644136 0.261365 0.517407
61 1 0.648638 0.379394 0.439894
63 1 0.549593 0.424412 0.273694
22 2 0.487751 0.327984 0.381653
54 1 0.802466 0.272728 0.364174
24 2 0.537452 0.388961 0.321191
40 2 0.625045 0.529048 0.452226
41 2 0.431687 0.460197 0.452068
3 2 0.486431 0.572811 0.307665
11 2 0.424265 0.624441 0.310375
19 2 0.421212 0.543674 0.339881
35 2 0.446364 0.539344 0.352673
51 1 0.429734 0.591886 0.366195
45 2 0.624851 0.553897 0.443442
7 2 0.581287 0.614235 0.426362
23 2 0.571304 0.563888 0.422544
39 2 0.61026 0.534989 0.42944
55 1 0.690069 0.652149 0.355015
6 2 0.7694 0.548708 0.42965
9 2 0.45282 0.432772 0.56457
18 2 0.452821 0.359294 0.60729
26 2 0.257963 0.509925 0.559469
34 2 0.449133 0.444956 0.521047
50 1 0.452451 0.362587 0.598928
58 1 0.38874 0.416512 0.696219
2 2 0.501254 0.37914 0.466637
14 2 0.59119 0.453573 0.719208
30 2 0.49411 0.272414 0.486782
46 2 0.643501 0.395235 0.597197
62 1 0.632016 0.523573 0.709383
8 2 0.690521 0.479755 0.558462
56 1 0.734216 0.517135 0.552977
27 2 0.298898 0.647873 0.654416
43 2 0.44406 0.679086 0.680074
59 1 0.257428 0.673079 0.550787
31 2 0.41008 0.675468 0.493761
47 2 0.426699 0.681284 0.491513
10 2 0.334917 0.535496 0.599198
42 2 0.455135 0.50602 0.589223
20 2 0.445256 0.512974 0.600346
28 2 0.31421 0.56264 0.587071
36 2 0.474628 0.50351 0.575616
52 1 0.35691 0.631774 0.639923
60 1 0.360013 0.479227 0.671604
16 2 0.403607 0.678457 0.493345
32 2 0.390215 0.479676 0.70164
15 2 0.636042 0.580726 0.569216
4 2 0.531229 0.596592 0.617127
48 2 0.590576 0.684506 0.571273
64 1 0.574847 0.728566 0.561053
12 2 0.256728 0.749948 0.682642
44 2 0.295129 0.797891 0.544376
ITEM: TIMESTEP
800
ITEM: NUMBER OF ATOMS
64
ITEM: BOX BOUNDS pp pp pp
-4.0700010000000004e+00 1.2130000000000001e+01
-4.0700010000000004e+00 1.2130000000000001e+01
-4.0700010000000004e+00 1.2130000000000001e+01
ITEM: ATOMS id type xs ys zs
38 2 0.750927 0.253855 0.413178
1 2 0.382479 0.476481 0.420868
17 2 0.352992 0.475592 0.39707
25 2 0.362439 0.414163 0.455033
49 1 0.376387 0.251057 0.402219
57 1 0.337706 0.466505 0.463219
29 2 0.364713 0.391039 0.464498
33 2 0.711071 0.397837 0.329172
5 2 0.6747 0.309918 0.420686
13 2 0.541535 0.424857 0.445117
21 2 0.709086 0.362945 0.412175
37 2 0.684329 0.332323 0.427368
53 1 0.651828 0.254663 0.533347
61 1 0.647474 0.420374 0.414051
63 1 0.537526 0.415931 0.259832
22 2 0.493829 0.332386 0.376713
54 1 0.782355 0.268488 0.33605
24 2 0.525682 0.379368 0.311212
40 2 0.625871 0.531118 0.447692
41 2 0.433964 0.454758 0.4745
3 2 0.491516 0.561494 0.315042
11 2 0.432301 0.616996 0.308178
19 2 0.428814 0.53044 0.340791
35 2 0.459312 0.525219 0.355067
51 1 0.434566 0.578536 0.37124
45 2 0.62236 0.562298 0.444076
7 2 0.576366 0.628309 0.446664
23 2 0.576529 0.548863 0.423605
39 2 0.612228 0.531821 0.435798
55 1 0.705636 0.667762 0.373094
6 2 0.764584 0.544296 0.44059
9 2 0.443485 0.454453 0.551161
18 2 0.449389 0.364095 0.602556
26 2 0.251683 0.511408 0.565718
34 2 0.452176 0.439829 0.526885
50 1 0.473938 0.360539 0.619915
58 1 0.379633 0.409379 0.684816
2 2 0.498595 0.372905 0.471041
14 2 0.585346 0.445364 0.710763
30 2 0.499871 0.272916 0.492188
46 2 0.625895 0.387042 0.598056
62 1 0.642803 0.511828 0.708634
8 2 0.695336 0.472539 0.562041
56 1 0.717279 0.503826 0.548503
27 2 0.310279 0.649854 0.654348
43 2 0.452525 0.677136 0.677788
59 1 0.252126 0.674361 0.549816
31 2 0.410143 0.677313 0.491234
47 2 0.425923 0.68259 0.489702
10 2 0.328365 0.54404 0.597122
42 2 0.462895 0.510279 0.586413
20 2 0.439435 0.516692 0.59938
28 2 0.317201 0.56146 0.588724
36 2 0.476885 0.509315 0.575244
52 1 0.360021 0.628843 0.644519
60 1 0.360663 0.479928 0.681263
16 2 0.403009 0.680356 0.490239
32 2 0.381737 0.481877 0.698084
15 2 0.633525 0.574592 0.572429
4 2 0.524667 0.596382 0.628061
48 2 0.585094 0.703021 0.554827
64 1 0.583633 0.72807 0.560594
12 2 0.256383 0.748289 0.681595
44 2 0.289116 0.798341 0.539625
ITEM: TIMESTEP
900
ITEM: NUMBER OF ATOMS
64
ITEM: BOX BOUNDS pp pp pp
-4.0700010000000004e+00 1.2130000000000001e+01
-4.0700010000000004e+00 1.2130000000000001e+01
-4.0700010000000004e+00 1.2130000000000001e+01
ITEM: ATOMS id type xs ys zs
38 2 0.74983 0.256796 0.407195
1 2 0.374733 0.48064 0.409741
17 2 0.354414 0.478708 0.403771
25 2 0.365855 0.399143 0.464003
49 1 0.394645 0.239453 0.403468
57 1 0.354258 0.469406 0.469539
29 2 0.373773 0.386963 0.477859
33 2 0.691265 0.399072 0.322613
5 2 0.678795 0.322998 0.421374
13 2 0.55427 0.425592 0.458599
21 2 0.690751 0.356505 0.409818
37 2 0.683212 0.334551 0.421568
53 1 0.664891 0.245051 0.526389
61 1 0.639415 0.389185 0.415348
63 1 0.539224 0.418834 0.246979
22 2 0.501002 0.331957 0.372478
54 1 0.770506 0.267368 0.324928
24 2 0.517795 0.373447 0.316426
40 2 0.630013 0.536312 0.450695
41 2 0.429129 0.450658 0.491523
3 2 0.500106 0.560219 0.307118
11 2 0.440612 0.619817 0.304731
19 2 0.434283 0.536191 0.359806
35 2 0.458385 0.519288 0.354493
51 1 0.431194 0.568519 0.378174
45 2 0.621318 0.565427 0.45058
7 2 0.580219 0.634046 0.449698
23 2 0.579051 0.549051 0.426874
39 2 0.603864 0.532406 0.438829
55 1 0.707625 0.682939 0.41434
6 2 0.763999 0.536481 0.440548
9 2 0.434917 0.466787 0.553126
18 2 0.430018 0.35987 0.588988
26 2 0.259046 0.508217 0.562139
34 2 0.450932 0.431625 0.529695
50 1 0.458468 0.353813 0.623887
58 1 0.363848 0.407098 0.673508
2 2 0.500114 0.367069 0.464295
14 2 0.577848 0.430692 0.697541
30 2 0.512223 0.280981 0.493194
46 2 0.629531 0.379468 0.596626
62 1 0.645205 0.511124 0.708979
8 2 0.707914 0.474686 0.560053
56 1 0.71781 0.497309 0.551368
27 2 0.31844 0.650829 0.645042
43 2 0.456097 0.676753 0.679439
59 1 0.24364 0.669467 0.551669
31 2 0.406413 0.679199 0.483939
47 2 0.428127 0.68448 0.482591
10 2 0.329342 0.546254 0.594342
42 2 0.458797 0.511728 0.592474
20 2 0.436161 0.518999 0.600065
28 2 0.31765 0.566389 0.584434
36 2 0.477668 0.508428 0.580042
52 1 0.356478 0.631602 0.638493
60 1 0.36413 0.489755 0.685262
16 2 0.399336 0.682187 0.482905
32 2 0.38639 0.485694 0.701829
15 2 0.638094 0.574775 0.573556
4 2 0.528459 0.60332 0.631826
48 2 0.572219 0.722007 0.541645
64 1 0.61035 0.722506 0.584985
12 2 0.255369 0.747794 0.67993
44 2 0.282905 0.792417 0.535214
ITEM: TIMESTEP
1000
ITEM: NUMBER OF ATOMS
64
ITEM: BOX BOUNDS pp pp pp
-4.0700010000000004e+00 1.2130000000000001e+01
-4.0700010000000004e+00 1.2130000000000001e+01
-4.0700010000000004e+00 1.2130000000000001e+01
ITEM: ATOMS id type xs ys zs
38 2 0.747938 0.26178 0.40073
1 2 0.369035 0.481368 0.401643
17 2 0.363154 0.491393 0.40684
25 2 0.372375 0.3949 0.466679
49 1 0.400025 0.221257 0.42595
57 1 0.336512 0.458653 0.482864
29 2 0.374078 0.37453 0.478169
33 2 0.689721 0.400986 0.318212
5 2 0.686046 0.340367 0.421712
13 2 0.563808 0.435761 0.465731
21 2 0.683418 0.350289 0.409851
37 2 0.686384 0.339291 0.417333
53 1 0.664904 0.250107 0.527865
61 1 0.644849 0.384911 0.440189
63 1 0.552044 0.414432 0.246152
22 2 0.495792 0.337239 0.365832
54 1 0.768925 0.27273 0.313539
24 2 0.512355 0.370138 0.331208
40 2 0.620169 0.534911 0.454216
41 2 0.432899 0.446642 0.49385
3 2 0.509822 0.555994 0.301457
11 2 0.451328 0.628512 0.306755
19 2 0.43125 0.536027 0.369226
35 2 0.45037 0.522993 0.362532
51 1 0.429139 0.555887 0.380462
45 2 0.61405 0.565823 0.457251
7 2 0.590253 0.639739 0.450352
23 2 0.580107 0.547126 0.432361
39 2 0.601007 0.531831 0.445943
55 1 0.695802 0.694768 0.471019
6 2 0.762626 0.528768 0.432151
9 2 0.439583 0.46175 0.551661
18 2 0.42035 0.366077 0.577644
26 2 0.255152 0.50679 0.569494
34 2 0.450025 0.430807 0.529291
50 1 0.460486 0.350123 0.616588
58 1 0.348425 0.426535 0.669511
2 2 0.490468 0.354819 0.458376
14 2 0.57932 0.423627 0.683713
30 2 0.515998 0.271868 0.497504
46 2 0.618907 0.38005 0.596626
62 1 0.647142 0.509915 0.707919
8 2 0.714398 0.468488 0.55959
56 1 0.721481 0.492413 0.540717
27 2 0.317334 0.651045 0.643789
43 2 0.454728 0.686421 0.681344
59 1 0.250998 0.67083 0.545543
31 2 0.400044 0.680288 0.473975
47 2 0.430066 0.686906 0.473886
10 2 0.338442 0.546976 0.598192
42 2 0.458639 0.512275 0.590204
20 2 0.436123 0.51933 0.597177
28 2 0.32223 0.570086 0.587906
36 2 0.470382 0.510742 0.582958
52 1 0.361261 0.631949 0.634951
60 1 0.364585 0.496117 0.679256
16 2 0.393341 0.683926 0.475558
32 2 0.394544 0.483407 0.703941
15 2 0.646855 0.569552 0.571207
4 2 0.53773 0.599414 0.640178
48 2 0.567984 0.722719 0.532321
64 1 0.619688 0.724943 0.590218
12 2 0.25344 0.747244 0.677546
44 2 0.275121 0.788459 0.526588
ITEM: TIMESTEP
1100
ITEM: NUMBER OF ATOMS
64
ITEM: BOX BOUNDS pp pp pp
-4.0700010000000004e+00 1.2130000000000001e+01
-4.0700010000000004e+00 1.2130000000000001e+01
-4.0700010000000004e+00 1.2130000000000001e+01
ITEM: ATOMS id type xs ys zs
38 2 0.743695 0.266317 0.398181
1 2 0.364192 0.491153 0.408048
17 2 0.362524 0.496597 0.397518
25 2 0.366223 0.396729 0.474094
49 1 0.406955 0.235408 0.411453
57 1 0.33869 0.471718 0.466404
29 2 0.367934 0.374189 0.481402
33 2 0.68965 0.406975 0.315509
5 2 0.6794 0.345189 0.42114
13 2 0.564742 0.444837 0.459114
21 2 0.688197 0.346626 0.416933
37 2 0.686265 0.341423 0.419656
53 1 0.675442 0.256372 0.532404
61 1 0.636219 0.391749 0.442383
63 1 0.547204 0.411125 0.233038
22 2 0.497088 0.337668 0.369559
54 1 0.770989 0.283642 0.312948
24 2 0.511958 0.365386 0.334259
40 2 0.621039 0.521567 0.460245
41 2 0.430077 0.43899 0.496779
3 2 0.517688 0.54977 0.293332
11 2 0.466102 0.63541 0.310807
19 2 0.42285 0.52971 0.363237
35 2 0.432969 0.528095 0.366277
51 1 0.421044 0.558164 0.380245
45 2 0.617924 0.561571 0.459762
7 2 0.583318 0.634693 0.458218
23 2 0.579715 0.544715 0.429916
39 2 0.602342 0.526531 0.444859
55 1 0.712844 0.669678 0.475678
6 2 0.764338 0.535591 0.428711
9 2 0.437605 0.449516 0.541974
18 2 0.424946 0.382583 0.57185
26 2 0.261262 0.502818 0.577074
34 2 0.444149 0.430866 0.532049
50 1 0.464811 0.348669 0.626485
58 1 0.340447 0.424806 0.665976
2 2 0.490773 0.355098 0.447728
14 2 0.586959 0.417823 0.680679
30 2 0.52571 0.26468 0.506067
46 2 0.625418 0.383374 0.600243
62 1 0.656614 0.493905 0.704805
8 2 0.722427 0.46117 0.566537
56 1 0.724899 0.494296 0.554953
27 2 0.313612 0.653583 0.64755
43 2 0.457294 0.688699 0.679576
59 1 0.250798 0.65933 0.551055
31 2 0.391495 0.684601 0.46861
47 2 0.428436 0.685254 0.476983
10 2 0.349942 0.5461 0.599926
42 2 0.451444 0.519575 0.58885
20 2 0.434296 0.524537 0.593906
28 2 0.328887 0.570239 0.592365
36 2 0.467551 0.516399 0.579222
52 1 0.364073 0.636293 0.634949
60 1 0.363126 0.501678 0.675732
16 2 0.390435 0.685157 0.472569
32 2 0.398446 0.491756 0.700677
15 2 0.648884 0.561809 0.574297
4 2 0.544162 0.590659 0.641859
48 2 0.55963 0.719452 0.534288
64 1 0.614523 0.722909 0.594424
12 2 0.251049 0.747886 0.675082
44 2 0.266846 0.784749 0.516382
ITEM: TIMESTEP
1200
ITEM: NUMBER OF ATOMS
64
ITEM: BOX BOUNDS pp pp pp
-4.0700010000000004e+00 1.2130000000000001e+01
-4.0700010000000004e+00 1.2130000000000001e+01
-4.0700010000000004e+00 1.2130000000000001e+01
ITEM: ATOMS id type xs ys zs
38 2 0.737708 0.273164 0.397668
1 2 0.373568 0.500249 0.406748
17 2 0.360244 0.499475 0.39051
25 2 0.359086 0.389857 0.482652
49 1 0.41239 0.240231 0.420415
57 1 0.335086 0.466419 0.477513
29 2 0.359487 0.379115 0.488232
33 2 0.688002 0.413268 0.302744
5 2 0.679519 0.334298 0.423393
13 2 0.5686 0.445634 0.448552
21 2 0.70137 0.346176 0.42521
37 2 0.688288 0.330512 0.429687
53 1 0.685769 0.262084 0.539498
61 1 0.645943 0.387166 0.432515
63 1 0.541303 0.40232 0.224273
22 2 0.500847 0.351433 0.360067
54 1 0.779506 0.295548 0.321174
24 2 0.511403 0.368471 0.337015
40 2 0.615006 0.522466 0.456783
41 2 0.429446 0.439253 0.493622
3 2 0.520456 0.545537 0.284289
11 2 0.475721 0.638747 0.309829
19 2 0.416411 0.528681 0.363487
35 2 0.432439 0.527492 0.370736
51 1 0.418833 0.556177 0.381472
45 2 0.616145 0.552063 0.448969
7 2 0.579899 0.637266 0.466112
23 2 0.585084 0.537706 0.426122
39 2 0.607362 0.528078 0.448475
55 1 0.692924 0.693919 0.461119
6 2 0.765577 0.53464 0.432515
9 2 0.438041 0.447963 0.541667
18 2 0.433582 0.393806 0.56948
26 2 0.262514 0.501624 0.584502
34 2 0.44375 0.425812 0.524982
50 1 0.463073 0.35558 0.619981
58 1 0.351115 0.417763 0.656147
2 2 0.492916 0.36214 0.436711
14 2 0.58582 0.410419 0.687871
30 2 0.521821 0.265618 0.51244
46 2 0.62447 0.383632 0.60483
62 1 0.655411 0.479113 0.708837
8 2 0.721412 0.458466 0.566613
56 1 0.721736 0.496033 0.551567
27 2 0.314735 0.661127 0.643872
43 2 0.462296 0.687721 0.680685
59 1 0.245246 0.662433 0.552979
31 2 0.386919 0.688494 0.460475
47 2 0.427007 0.680612 0.495662
10 2 0.348321 0.545171 0.602805
42 2 0.455299 0.515549 0.588318
20 2 0.436604 0.5257 0.594577
28 2 0.329496 0.566661 0.596123
36 2 0.465892 0.512811 0.581468
52 1 0.360386 0.642438 0.635953
60 1 0.352249 0.518605 0.650992
16 2 0.372433 0.692168 0.468542
32 2 0.411036 0.502867 0.705739
15 2 0.64968 0.556909 0.579553
4 2 0.545128 0.580033 0.645678
48 2 0.561102 0.705092 0.530991
64 1 0.624379 0.712153 0.599592
12 2 0.248322 0.751607 0.675126
44 2 0.252708 0.783338 0.511188
ITEM: TIMESTEP
1300
ITEM: NUMBER OF ATOMS
64
ITEM: BOX BOUNDS pp pp pp
-4.0700010000000004e+00 1.2130000000000001e+01
-4.0700010000000004e+00 1.2130000000000001e+01
-4.0700010000000004e+00 1.2130000000000001e+01
ITEM: ATOMS id type xs ys zs
63 1 0.558432 0.412822 0.215785
49 1 0.403063 0.257257 0.418342
25 2 0.363024 0.388506 0.490423
57 1 0.350701 0.456554 0.489242
29 2 0.354884 0.385098 0.486496
41 2 0.427393 0.444885 0.492203
2 2 0.49037 0.368761 0.433603
38 2 0.728252 0.288571 0.397475
33 2 0.689256 0.422364 0.29212
5 2 0.681837 0.313409 0.429012
13 2 0.568655 0.447973 0.436913
21 2 0.706167 0.349227 0.42427