ITEM: TIMESTEP
0
ITEM: NUMBER OF ATOMS
324
ITEM: BOX BOUNDS pp pp pp
-2.8511199999999999e+00 1.6548880000000000e+01
-2.8511199999999999e+00 1.6548880000000000e+01
-4.2225440000000001e+00 2.7277456000000001e+01
ITEM: ATOMS id type xs ys zs
109 1 0.146965 0.146965 0.134049
118 1 0.396449 0.146965 0.134049
163 1 0.231732 0.189348 0.19643
217 1 0.354066 0.189348 0.19643
172 1 0.481216 0.189348 0.19643
127 1 0.645934 0.146965 0.134049
181 1 0.730701 0.189348 0.19643
226 1 0.603551 0.189348 0.19643
235 1 0.853035 0.189348 0.19643
112 1 0.146965 0.396449 0.134049
1 2 0.230126 0.313288 0.150718
121 1 0.396449 0.396449 0.134049
271 1 0.354066 0.311683 0.19643
10 2 0.479611 0.313288 0.150718
19 2 0.729096 0.313288 0.150718
130 1 0.645934 0.396449 0.134049
280 1 0.603551 0.311683 0.19643
289 1 0.853035 0.311683 0.19643
4 2 0.230126 0.562773 0.150718
166 1 0.231732 0.438833 0.19643
220 1 0.354066 0.438833 0.19643
274 1 0.354066 0.561167 0.19643
13 2 0.479611 0.562773 0.150718
175 1 0.481216 0.438833 0.19643
22 2 0.729096 0.562773 0.150718
184 1 0.730701 0.438833 0.19643
229 1 0.603551 0.438833 0.19643
283 1 0.603551 0.561167 0.19643
238 1 0.853035 0.438833 0.19643
292 1 0.853035 0.561167 0.19643
115 1 0.146965 0.645934 0.134049
124 1 0.396449 0.645934 0.134049
169 1 0.231732 0.688317 0.19643
223 1 0.354066 0.688317 0.19643
178 1 0.481216 0.688317 0.19643
133 1 0.645934 0.645934 0.134049
187 1 0.730701 0.688317 0.19643
232 1 0.603551 0.688317 0.19643
241 1 0.853035 0.688317 0.19643
7 2 0.230126 0.812257 0.150718
277 1 0.354066 0.810652 0.19643
16 2 0.479611 0.812257 0.150718
25 2 0.729096 0.812257 0.150718
286 1 0.603551 0.810652 0.19643
295 1 0.853035 0.810652 0.19643
136 1 0.146965 0.146965 0.258811
145 1 0.396449 0.146965 0.258811
154 1 0.645934 0.146965 0.258811
139 1 0.146965 0.396449 0.258811
244 1 0.189348 0.354066 0.321192
298 1 0.189348 0.231732 0.321192
55 2 0.313288 0.230126 0.27548
82 2 0.230126 0.313288 0.242141
148 1 0.396449 0.396449 0.258811
190 1 0.311683 0.354066 0.321192
64 2 0.562773 0.230126 0.27548
91 2 0.479611 0.313288 0.242141
199 1 0.561167 0.354066 0.321192
253 1 0.438833 0.354066 0.321192
307 1 0.438833 0.231732 0.321192
100 2 0.729096 0.313288 0.242141
157 1 0.645934 0.396449 0.258811
262 1 0.688317 0.354066 0.321192
316 1 0.688317 0.231732 0.321192
73 2 0.812257 0.230126 0.27548
208 1 0.810652 0.354066 0.321192
301 1 0.189348 0.481216 0.321192
58 2 0.313288 0.479611 0.27548
85 2 0.230126 0.562773 0.242141
67 2 0.562773 0.479611 0.27548
94 2 0.479611 0.562773 0.242141
310 1 0.438833 0.481216 0.321192
103 2 0.729096 0.562773 0.242141
319 1 0.688317 0.481216 0.321192
76 2 0.812257 0.479611 0.27548
142 1 0.146965 0.645934 0.258811
247 1 0.189348 0.603551 0.321192
304 1 0.189348 0.730701 0.321192
61 2 0.313288 0.729096 0.27548
151 1 0.396449 0.645934 0.258811
193 1 0.311683 0.603551 0.321192
70 2 0.562773 0.729096 0.27548
202 1 0.561167 0.603551 0.321192
256 1 0.438833 0.603551 0.321192
313 1 0.438833 0.730701 0.321192
160 1 0.645934 0.645934 0.258811
265 1 0.688317 0.603551 0.321192
322 1 0.688317 0.730701 0.321192
79 2 0.812257 0.729096 0.27548
211 1 0.810652 0.603551 0.321192
250 1 0.189348 0.853035 0.321192
88 2 0.230126 0.812257 0.242141
196 1 0.311683 0.853035 0.321192
97 2 0.479611 0.812257 0.242141
205 1 0.561167 0.853035 0.321192
259 1 0.438833 0.853035 0.321192
106 2 0.729096 0.812257 0.242141
268 1 0.688317 0.853035 0.321192
214 1 0.810652 0.853035 0.321192
110 1 0.146965 0.146965 0.383573
119 1 0.396449 0.146965 0.383573
128 1 0.645934 0.146965 0.383573
113 1 0.146965 0.396449 0.383573
2 2 0.230126 0.313288 0.400242
28 2 0.313288 0.230126 0.366903
122 1 0.396449 0.396449 0.383573
11 2 0.479611 0.313288 0.400242
37 2 0.562773 0.230126 0.366903
20 2 0.729096 0.313288 0.400242
131 1 0.645934 0.396449 0.383573
46 2 0.812257 0.230126 0.366903
5 2 0.230126 0.562773 0.400242
31 2 0.313288 0.479611 0.366903
14 2 0.479611 0.562773 0.400242
40 2 0.562773 0.479611 0.366903
23 2 0.729096 0.562773 0.400242
49 2 0.812257 0.479611 0.366903
116 1 0.146965 0.645934 0.383573
34 2 0.313288 0.729096 0.366903
125 1 0.396449 0.645934 0.383573
43 2 0.562773 0.729096 0.366903
134 1 0.645934 0.645934 0.383573
52 2 0.812257 0.729096 0.366903
8 2 0.230126 0.812257 0.400242
17 2 0.479611 0.812257 0.400242
26 2 0.729096 0.812257 0.400242
137 1 0.146965 0.146965 0.508335
146 1 0.396449 0.146965 0.508335
164 1 0.231732 0.189348 0.445954
218 1 0.354066 0.189348 0.445954
173 1 0.481216 0.189348 0.445954
155 1 0.645934 0.146965 0.508335
182 1 0.730701 0.189348 0.445954
227 1 0.603551 0.189348 0.445954
236 1 0.853035 0.189348 0.445954
140 1 0.146965 0.396449 0.508335
56 2 0.313288 0.230126 0.525004
83 2 0.230126 0.313288 0.491665
149 1 0.396449 0.396449 0.508335
272 1 0.354066 0.311683 0.445954
65 2 0.562773 0.230126 0.525004
92 2 0.479611 0.313288 0.491665
101 2 0.729096 0.313288 0.491665
158 1 0.645934 0.396449 0.508335
281 1 0.603551 0.311683 0.445954
74 2 0.812257 0.230126 0.525004
290 1 0.853035 0.311683 0.445954
59 2 0.313288 0.479611 0.525004
86 2 0.230126 0.562773 0.491665
167 1 0.231732 0.438833 0.445954
221 1 0.354066 0.438833 0.445954
275 1 0.354066 0.561167 0.445954
68 2 0.562773 0.479611 0.525004
95 2 0.479611 0.562773 0.491665
176 1 0.481216 0.438833 0.445954
104 2 0.729096 0.562773 0.491665
185 1 0.730701 0.438833 0.445954
230 1 0.603551 0.438833 0.445954
284 1 0.603551 0.561167 0.445954
77 2 0.812257 0.479611 0.525004
239 1 0.853035 0.438833 0.445954
293 1 0.853035 0.561167 0.445954
143 1 0.146965 0.645934 0.508335
62 2 0.313288 0.729096 0.525004
152 1 0.396449 0.645934 0.508335
170 1 0.231732 0.688317 0.445954
224 1 0.354066 0.688317 0.445954
71 2 0.562773 0.729096 0.525004
179 1 0.481216 0.688317 0.445954
161 1 0.645934 0.645934 0.508335
188 1 0.730701 0.688317 0.445954
233 1 0.603551 0.688317 0.445954
80 2 0.812257 0.729096 0.525004
242 1 0.853035 0.688317 0.445954
89 2 0.230126 0.812257 0.491665
278 1 0.354066 0.810652 0.445954
98 2 0.479611 0.812257 0.491665
107 2 0.729096 0.812257 0.491665
287 1 0.603551 0.810652 0.445954
296 1 0.853035 0.810652 0.445954
111 1 0.146965 0.146965 0.633097
120 1 0.396449 0.146965 0.633097
129 1 0.645934 0.146965 0.633097
114 1 0.146965 0.396449 0.633097
245 1 0.189348 0.354066 0.570716
299 1 0.189348 0.231732 0.570716
3 2 0.230126 0.313288 0.649766
29 2 0.313288 0.230126 0.616427
123 1 0.396449 0.396449 0.633097
191 1 0.311683 0.354066 0.570716
12 2 0.479611 0.313288 0.649766
38 2 0.562773 0.230126 0.616427
200 1 0.561167 0.354066 0.570716
254 1 0.438833 0.354066 0.570716
308 1 0.438833 0.231732 0.570716
21 2 0.729096 0.313288 0.649766
132 1 0.645934 0.396449 0.633097
263 1 0.688317 0.354066 0.570716
317 1 0.688317 0.231732 0.570716
47 2 0.812257 0.230126 0.616427
209 1 0.810652 0.354066 0.570716
302 1 0.189348 0.481216 0.570716
6 2 0.230126 0.562773 0.649766
32 2 0.313288 0.479611 0.616427
15 2 0.479611 0.562773 0.649766
41 2 0.562773 0.479611 0.616427
311 1 0.438833 0.481216 0.570716
24 2 0.729096 0.562773 0.649766
320 1 0.688317 0.481216 0.570716
50 2 0.812257 0.479611 0.616427
117 1 0.146965 0.645934 0.633097
248 1 0.189348 0.603551 0.570716
305 1 0.189348 0.730701 0.570716
35 2 0.313288 0.729096 0.616427
126 1 0.396449 0.645934 0.633097
194 1 0.311683 0.603551 0.570716
44 2 0.562773 0.729096 0.616427
203 1 0.561167 0.603551 0.570716
257 1 0.438833 0.603551 0.570716
314 1 0.438833 0.730701 0.570716
135 1 0.645934 0.645934 0.633097
266 1 0.688317 0.603551 0.570716
323 1 0.688317 0.730701 0.570716
53 2 0.812257 0.729096 0.616427
212 1 0.810652 0.603551 0.570716
251 1 0.189348 0.853035 0.570716
9 2 0.230126 0.812257 0.649766
197 1 0.311683 0.853035 0.570716
18 2 0.479611 0.812257 0.649766
206 1 0.561167 0.853035 0.570716
260 1 0.438833 0.853035 0.570716
27 2 0.729096 0.812257 0.649766
269 1 0.688317 0.853035 0.570716
215 1 0.810652 0.853035 0.570716
138 1 0.146965 0.146965 0.757859
147 1 0.396449 0.146965 0.757859
165 1 0.231732 0.189348 0.695478
219 1 0.354066 0.189348 0.695478
174 1 0.481216 0.189348 0.695478
156 1 0.645934 0.146965 0.757859
183 1 0.730701 0.189348 0.695478
228 1 0.603551 0.189348 0.695478
237 1 0.853035 0.189348 0.695478
141 1 0.146965 0.396449 0.757859
57 2 0.313288 0.230126 0.774528
84 2 0.230126 0.313288 0.741189
150 1 0.396449 0.396449 0.757859
273 1 0.354066 0.311683 0.695478
66 2 0.562773 0.230126 0.774528
93 2 0.479611 0.313288 0.741189
102 2 0.729096 0.313288 0.741189
159 1 0.645934 0.396449 0.757859
282 1 0.603551 0.311683 0.695478
75 2 0.812257 0.230126 0.774528
291 1 0.853035 0.311683 0.695478
60 2 0.313288 0.479611 0.774528
87 2 0.230126 0.562773 0.741189
168 1 0.231732 0.438833 0.695478
222 1 0.354066 0.438833 0.695478
276 1 0.354066 0.561167 0.695478
69 2 0.562773 0.479611 0.774528
96 2 0.479611 0.562773 0.741189
177 1 0.481216 0.438833 0.695478
105 2 0.729096 0.562773 0.741189
186 1 0.730701 0.438833 0.695478
231 1 0.603551 0.438833 0.695478
285 1 0.603551 0.561167 0.695478
78 2 0.812257 0.479611 0.774528
240 1 0.853035 0.438833 0.695478
294 1 0.853035 0.561167 0.695478
144 1 0.146965 0.645934 0.757859
63 2 0.313288 0.729096 0.774528
153 1 0.396449 0.645934 0.757859
171 1 0.231732 0.688317 0.695478
225 1 0.354066 0.688317 0.695478
72 2 0.562773 0.729096 0.774528
180 1 0.481216 0.688317 0.695478
162 1 0.645934 0.645934 0.757859
189 1 0.730701 0.688317 0.695478
234 1 0.603551 0.688317 0.695478
81 2 0.812257 0.729096 0.774528
243 1 0.853035 0.688317 0.695478
90 2 0.230126 0.812257 0.741189
279 1 0.354066 0.810652 0.695478
99 2 0.479611 0.812257 0.741189
108 2 0.729096 0.812257 0.741189
288 1 0.603551 0.810652 0.695478
297 1 0.853035 0.810652 0.695478
246 1 0.189348 0.354066 0.820239
300 1 0.189348 0.231732 0.820239
30 2 0.313288 0.230126 0.865951
192 1 0.311683 0.354066 0.820239
39 2 0.562773 0.230126 0.865951
201 1 0.561167 0.354066 0.820239
255 1 0.438833 0.354066 0.820239
309 1 0.438833 0.231732 0.820239
264 1 0.688317 0.354066 0.820239
318 1 0.688317 0.231732 0.820239
48 2 0.812257 0.230126 0.865951
210 1 0.810652 0.354066 0.820239
303 1 0.189348 0.481216 0.820239
33 2 0.313288 0.479611 0.865951
42 2 0.562773 0.479611 0.865951
312 1 0.438833 0.481216 0.820239
321 1 0.688317 0.481216 0.820239
51 2 0.812257 0.479611 0.865951
249 1 0.189348 0.603551 0.820239
306 1 0.189348 0.730701 0.820239
36 2 0.313288 0.729096 0.865951
195 1 0.311683 0.603551 0.820239
45 2 0.562773 0.729096 0.865951
204 1 0.561167 0.603551 0.820239
258 1 0.438833 0.603551 0.820239
315 1 0.438833 0.730701 0.820239
267 1 0.688317 0.603551 0.820239
324 1 0.688317 0.730701 0.820239
54 2 0.812257 0.729096 0.865951
213 1 0.810652 0.603551 0.820239
252 1 0.189348 0.853035 0.820239
198 1 0.311683 0.853035 0.820239
207 1 0.561167 0.853035 0.820239
261 1 0.438833 0.853035 0.820239
270 1 0.688317 0.853035 0.820239
216 1 0.810652 0.853035 0.820239
ITEM: TIMESTEP
100
ITEM: NUMBER OF ATOMS
324
ITEM: BOX BOUNDS pp pp pp
-2.8511199999999999e+00 1.6548880000000000e+01
-2.8511199999999999e+00 1.6548880000000000e+01
-4.2225440000000001e+00 2.7277456000000001e+01
ITEM: ATOMS id type xs ys zs
109 1 0.205621 0.200752 0.123138
118 1 0.430091 0.192743 0.126303
163 1 0.214842 0.244689 0.190487
217 1 0.363242 0.201823 0.20324
172 1 0.476028 0.165014 0.192579
127 1 0.649686 0.217361 0.151408
181 1 0.717226 0.16529 0.205419
226 1 0.649029 0.221854 0.151107
235 1 0.844564 0.206376 0.212584
112 1 0.180485 0.45633 0.12541
1 2 0.315436 0.243682 0.137543
121 1 0.426893 0.449119 0.110968
271 1 0.356966 0.364169 0.137156
10 2 0.528014 0.265221 0.15232
19 2 0.761219 0.274484 0.172899
130 1 0.628512 0.480013 0.162002
280 1 0.584651 0.378218 0.191147
289 1 0.822123 0.349414 0.229802
4 2 0.299654 0.480561 0.12885
166 1 0.223155 0.443709 0.193227
220 1 0.369139 0.449958 0.195127
274 1 0.374039 0.581874 0.14544
13 2 0.495873 0.509089 0.16588
175 1 0.463984 0.376841 0.175458
22 2 0.75356 0.516468 0.171626
184 1 0.713885 0.390261 0.194569
229 1 0.617286 0.485784 0.164496
283 1 0.571653 0.629415 0.189097
238 1 0.852995 0.453834 0.199026
292 1 0.813648 0.582055 0.230149
115 1 0.187953 0.737068 0.137736
124 1 0.397731 0.705014 0.134857
169 1 0.218276 0.697933 0.203229
223 1 0.36618 0.711466 0.211791
178 1 0.451062 0.633807 0.188868
133 1 0.615432 0.739461 0.178382
187 1 0.706625 0.643373 0.191516
232 1 0.616957 0.746134 0.180849
241 1 0.828393 0.69516 0.204781
7 2 0.297707 0.775134 0.15912
277 1 0.381227 0.847331 0.204134
16 2 0.489197 0.762497 0.181602
25 2 0.737608 0.779119 0.187678
286 1 0.612128 0.804286 0.180042
295 1 0.768669 0.814424 0.259322
136 1 0.210508 0.280944 0.265804
145 1 0.473718 0.139822 0.266241
154 1 0.66398 0.156977 0.269181
139 1 0.187543 0.496573 0.25824
244 1 0.279589 0.327937 0.322629
298 1 0.213783 0.196468 0.323311
55 2 0.319973 0.217918 0.279263
82 2 0.305092 0.332015 0.21493
148 1 0.411204 0.407994 0.243091
190 1 0.391283 0.32441 0.312164
64 2 0.553045 0.208945 0.311638
91 2 0.457799 0.271526 0.24073
199 1 0.667322 0.330588 0.321713
253 1 0.517683 0.335354 0.311331
307 1 0.424176 0.191598 0.327765
100 2 0.626651 0.263982 0.227006
157 1 0.64884 0.402591 0.25482
262 1 0.797504 0.352178 0.317993
316 1 0.684909 0.206186 0.334657
73 2 0.7658 0.246407 0.270156
208 1 0.819583 0.35051 0.308707
301 1 0.196081 0.419392 0.33552
58 2 0.301314 0.449185 0.286828
85 2 0.284156 0.56156 0.209197
67 2 0.536507 0.433025 0.260116
94 2 0.425785 0.540182 0.249457
310 1 0.430357 0.440976 0.315633
103 2 0.64043 0.543642 0.234633
319 1 0.658617 0.469225 0.311351
76 2 0.772186 0.459682 0.263725
142 1 0.155885 0.756666 0.256345
247 1 0.234884 0.570961 0.309702
304 1 0.205834 0.689251 0.305771
61 2 0.324301 0.657119 0.278714
151 1 0.400202 0.654711 0.25657
193 1 0.379133 0.561508 0.326292
70 2 0.533206 0.663582 0.268246
202 1 0.624654 0.585744 0.315707
256 1 0.565944 0.549869 0.306225
313 1 0.425939 0.685092 0.326985
160 1 0.629346 0.655261 0.254533
265 1 0.762942 0.568096 0.317718
322 1 0.643019 0.709842 0.320902
79 2 0.751856 0.679298 0.269182
211 1 0.807882 0.574076 0.309314
250 1 0.192997 0.822174 0.31619
88 2 0.276402 0.793642 0.253191
196 1 0.349528 0.793844 0.329998
97 2 0.436057 0.786782 0.268994
205 1 0.525106 0.761395 0.332642
259 1 0.462654 0.848485 0.338796
106 2 0.630679 0.792879 0.257503
268 1 0.602824 0.847566 0.332737
214 1 0.726768 0.78243 0.324635
110 1 0.214771 0.165593 0.395365
119 1 0.491796 0.200918 0.392333
128 1 0.743788 0.142177 0.387077
113 1 0.147643 0.495177 0.393242
2 2 0.248662 0.355151 0.403634
28 2 0.317542 0.222936 0.372515
122 1 0.44197 0.386047 0.384391
11 2 0.412946 0.344506 0.396327
37 2 0.573085 0.299206 0.387182
20 2 0.720053 0.332148 0.406926
131 1 0.647853 0.423701 0.378667
46 2 0.814722 0.238307 0.362262
5 2 0.198326 0.585292 0.444567
31 2 0.274052 0.506898 0.376299
14 2 0.433298 0.519446 0.397626
40 2 0.5505 0.443718 0.358983
23 2 0.659196 0.560433 0.393133
49 2 0.779244 0.461385 0.362609
116 1 0.169711 0.733715 0.369207
34 2 0.286844 0.665553 0.373987
125 1 0.39585 0.632539 0.389586
43 2 0.532854 0.636411 0.369744
134 1 0.647983 0.637822 0.387422
52 2 0.76898 0.674586 0.367144
8 2 0.261308 0.816841 0.387006
17 2 0.435607 0.763901 0.398302
26 2 0.641706 0.765423 0.394092
137 1 0.234797 0.201597 0.490747
146 1 0.463265 0.165828 0.505909
164 1 0.170711 0.254068 0.433289
218 1 0.339544 0.323413 0.46654
173 1 0.394557 0.214722 0.447553
155 1 0.686475 0.172203 0.508767
182 1 0.704928 0.210411 0.440998
227 1 0.59167 0.261977 0.426588
236 1 0.826553 0.183265 0.435204
140 1 0.193695 0.477611 0.524744
56 2 0.344562 0.258683 0.523812
83 2 0.206552 0.326599 0.493334
149 1 0.408192 0.403445 0.506048
272 1 0.341363 0.439755 0.442106
65 2 0.570074 0.196662 0.546096
92 2 0.493139 0.292844 0.482098
101 2 0.648981 0.300748 0.494601
158 1 0.666846 0.401404 0.509514
281 1 0.598978 0.409329 0.448052
74 2 0.791753 0.245614 0.503936
290 1 0.8399 0.291706 0.434695
59 2 0.318064 0.418115 0.525692
86 2 0.27467 0.578907 0.533769
167 1 0.197295 0.446512 0.453617
221 1 0.32827 0.570588 0.436845
275 1 0.313156 0.659407 0.459047
68 2 0.537234 0.450222 0.520604
95 2 0.411665 0.538654 0.495691
176 1 0.477639 0.433881 0.451771
104 2 0.663136 0.540026 0.490472
185 1 0.716679 0.452929 0.438766
230 1 0.55449 0.585896 0.444741
284 1 0.57055 0.612176 0.447819
77 2 0.786779 0.446383 0.511204
239 1 0.82184 0.412287 0.434971
293 1 0.775243 0.522377 0.439588
143 1 0.160444 0.767431 0.50868
62 2 0.290693 0.738761 0.525641
152 1 0.396544 0.644027 0.514749
170 1 0.202313 0.729187 0.441484
224 1 0.336623 0.785793 0.453119
71 2 0.527818 0.638188 0.523028
179 1 0.45133 0.64858 0.449949
161 1 0.652632 0.629635 0.499805
188 1 0.73611 0.63928 0.442823
233 1 0.544241 0.731947 0.446057
80 2 0.77606 0.661695 0.517274
242 1 0.813007 0.639657 0.441137
89 2 0.233065 0.856452 0.474948
278 1 0.354067 0.84084 0.445108
98 2 0.44631 0.775435 0.49768
107 2 0.652044 0.758569 0.492357
287 1 0.546165 0.799356 0.447244
296 1 0.756744 0.735992 0.443857
111 1 0.202953 0.214637 0.637125
120 1 0.464545 0.199676 0.653622
129 1 0.75328 0.167776 0.643797
114 1 0.175746 0.459378 0.624661
245 1 0.315089 0.340414 0.594928
299 1 0.226354 0.240684 0.565242
3 2 0.253781 0.336503 0.657693
29 2 0.325962 0.208398 0.615053
123 1 0.403928 0.409549 0.634732
191 1 0.433585 0.337969 0.565786
12 2 0.414876 0.325328 0.648423
38 2 0.575535 0.266759 0.632708
200 1 0.66303 0.33353 0.577954
254 1 0.55462 0.328883 0.554652
308 1 0.445959 0.206829 0.576812
21 2 0.727459 0.296684 0.656598
132 1 0.640647 0.398914 0.639463
263 1 0.784376 0.344196 0.561645
317 1 0.699898 0.208082 0.577956
47 2 0.831875 0.236451 0.596207
209 1 0.83535 0.346004 0.553554
302 1 0.205829 0.374679 0.573332
6 2 0.209838 0.576425 0.648408
32 2 0.308929 0.475356 0.615445
15 2 0.451508 0.539058 0.656468
41 2 0.536678 0.415024 0.616515
311 1 0.427463 0.464782 0.570456
24 2 0.635377 0.528375 0.64917
320 1 0.645549 0.459359 0.573484
50 2 0.767765 0.446667 0.613133
117 1 0.178415 0.751335 0.648447
248 1 0.224934 0.648037 0.566698
305 1 0.197063 0.765184 0.579776
35 2 0.302855 0.697138 0.620243
126 1 0.415434 0.663988 0.636505
194 1 0.415236 0.584717 0.580297
44 2 0.540567 0.667492 0.620851
203 1 0.624148 0.576698 0.568577
257 1 0.5417 0.547731 0.588075
314 1 0.417618 0.71544 0.570474
135 1 0.622868 0.644975 0.629568
266 1 0.742965 0.547266 0.55605
323 1 0.642628 0.703124 0.566135
53 2 0.753896 0.640931 0.614012
212 1 0.805076 0.549548 0.560856
251 1 0.220424 0.843451 0.554602
9 2 0.267361 0.844276 0.633456
197 1 0.360496 0.82395 0.575552
18 2 0.450635 0.794542 0.636425
206 1 0.526397 0.767137 0.56512
260 1 0.478408 0.848808 0.562417
27 2 0.662489 0.773027 0.634772
269 1 0.628979 0.82456 0.562164
215 1 0.730745 0.759449 0.563177
138 1 0.217808 0.215445 0.773739
147 1 0.458826 0.167842 0.769101
165 1 0.252292 0.228381 0.704334
219 1 0.360351 0.310386 0.722885
174 1 0.370555 0.19057 0.699235
156 1 0.737185 0.21237 0.78684
183 1 0.704417 0.193945 0.715545
228 1 0.606972 0.243426 0.68181
237 1 0.841519 0.231098 0.677111
141 1 0.160844 0.46214 0.768823
57 2 0.353826 0.223311 0.775622
84 2 0.247728 0.340365 0.756262
150 1 0.405556 0.417052 0.750668
273 1 0.324077 0.433018 0.698753
66 2 0.588517 0.168123 0.762401
93 2 0.495182 0.283008 0.724356
102 2 0.649854 0.306499 0.749493
159 1 0.700312 0.397898 0.77101
282 1 0.592052 0.408036 0.707509
75 2 0.806094 0.305974 0.743892
291 1 0.835435 0.383554 0.678658
60 2 0.295433 0.486311 0.785653
87 2 0.191412 0.576223 0.743245
168 1 0.199702 0.449654 0.698316
222 1 0.32195 0.567335 0.70142
276 1 0.329769 0.616059 0.682762
69 2 0.537371 0.424305 0.783728
96 2 0.437683 0.540488 0.75438
177 1 0.474405 0.425039 0.695845
105 2 0.674934 0.531915 0.749454
186 1 0.717262 0.419583 0.697317
231 1 0.555343 0.525782 0.719452
285 1 0.56861 0.622141 0.696794
78 2 0.82093 0.468128 0.744914
240 1 0.853546 0.501137 0.668977
294 1 0.766556 0.534821 0.68062
144 1 0.195073 0.725835 0.763578
63 2 0.319394 0.662266 0.76286
153 1 0.430736 0.638131 0.790648
171 1 0.227078 0.683028 0.698387
225 1 0.3535 0.739666 0.674248
72 2 0.5549 0.659847 0.773791
180 1 0.432202 0.650417 0.710368
162 1 0.654004 0.635592 0.75694
189 1 0.694362 0.641085 0.688433
234 1 0.551938 0.746811 0.681004
81 2 0.783775 0.659384 0.744952
243 1 0.841176 0.6258 0.675238
90 2 0.284366 0.803171 0.729043
279 1 0.374354 0.87424 0.684906
99 2 0.44975 0.777543 0.737887
108 2 0.659124 0.764875 0.733337
288 1 0.560384 0.809506 0.684234
297 1 0.767207 0.736231 0.677884
246 1 0.225821 0.358307 0.893185
300 1 0.276682 0.176163 0.833582
30 2 0.315859 0.290541 0.858111
192 1 0.394474 0.341453 0.801259
39 2 0.501907 0.265835 0.819426
201 1 0.616994 0.351222 0.833479
255 1 0.427007 0.354079 0.87331
309 1 0.39896 0.177436 0.843648
264 1 0.692532 0.399798 0.886352
318 1 0.635418 0.226551 0.830002
48 2 0.74382 0.318601 0.833305
210 1 0.849741 0.383026 0.807512
303 1 0.209965 0.409442 0.828324
33 2 0.320085 0.442382 0.87663
42 2 0.515044 0.5548 0.842631
312 1 0.424198 0.451157 0.826564
321 1 0.618218 0.471558 0.848207
51 2 0.751158 0.480652 0.832343
249 1 0.284423 0.565151 0.852959
306 1 0.220669 0.64624 0.816466
36 2 0.341692 0.684983 0.854291
195 1 0.376373 0.561279 0.838901
45 2 0.570764 0.699546 0.865825
204 1 0.64957 0.593113 0.828971
258 1 0.452591 0.648096 0.887029
315 1 0.459113 0.736933 0.826346
267 1 0.744336 0.583056 0.878603
324 1 0.670185 0.716174 0.812691
54 2 0.789389 0.674339 0.837133
213 1 0.84169 0.572793 0.799327
252 1 0.182689 0.842849 0.764299
198 1 0.35546 0.788747 0.802512
207 1 0.571329 0.789249 0.800533
261 1 0.379301 0.882934 0.758959
270 1 0.664338 0.860116 0.78104
216 1 0.759652 0.769916 0.789307
ITEM: TIMESTEP
200
ITEM: NUMBER OF ATOMS
324
ITEM: BOX BOUNDS pp pp pp
-2.8511199999999999e+00 1.6548880000000000e+01
-2.8511199999999999e+00 1.6548880000000000e+01
-4.2225440000000001e+00 2.7277456000000001e+01
ITEM: ATOMS id type xs ys zs
109 1 0.205962 0.1993 0.123821
118 1 0.429887 0.192259 0.126441
163 1 0.214094 0.247437 0.190277
217 1 0.363618 0.200904 0.202851
172 1 0.476906 0.164042 0.192571
127 1 0.650175 0.21612 0.151384
181 1 0.715717 0.164242 0.206606
226 1 0.649485 0.220538 0.151104
235 1 0.843323 0.204441 0.214143
112 1 0.181646 0.458362 0.12573
1 2 0.31531 0.243858 0.13765
121 1 0.427684 0.448755 0.111036
271 1 0.356858 0.36444 0.137087
10 2 0.528541 0.264117 0.15162
19 2 0.76141 0.272888 0.173473
130 1 0.630412 0.47902 0.1606
280 1 0.58714 0.3765 0.189789
289 1 0.822571 0.350068 0.22949
4 2 0.30132 0.481469 0.128778
166 1 0.226634 0.446314 0.193041
220 1 0.371391 0.449414 0.195169
274 1 0.377738 0.58193 0.142106
13 2 0.497388 0.508587 0.166197
175 1 0.465405 0.375732 0.174686
22 2 0.754719 0.517793 0.171718
184 1 0.716432 0.390815 0.193311
229 1 0.61831 0.483926 0.162543
283 1 0.572077 0.632524 0.187557
238 1 0.854141 0.455004 0.199455
292 1 0.814567 0.583923 0.230156
115 1 0.188832 0.73942 0.137561
124 1 0.399521 0.704417 0.133917
169 1 0.220313 0.697014 0.202039
223 1 0.365127 0.708238 0.21155
178 1 0.451033 0.631336 0.189358
133 1 0.618364 0.744112 0.17773
187 1 0.705589 0.644611 0.190765
232 1 0.61766 0.744709 0.179254
241 1 0.831256 0.697244 0.205632
7 2 0.299762 0.774785 0.158375
277 1 0.382011 0.846973 0.203806
16 2 0.490134 0.75954 0.181381
25 2 0.738707 0.779288 0.188676
286 1 0.613135 0.798535 0.178559
295 1 0.763801 0.818867 0.26051
136 1 0.210828 0.281626 0.266408
145 1 0.473483 0.139183 0.266553
154 1 0.663194 0.157598 0.271014
139 1 0.190715 0.499318 0.256792
244 1 0.280808 0.328758 0.322869
298 1 0.214049 0.19631 0.324353
55 2 0.319556 0.217848 0.279577
82 2 0.306058 0.332092 0.215133
148 1 0.414429 0.405234 0.242979
190 1 0.391996 0.323417 0.312116
64 2 0.551714 0.208776 0.312783
91 2 0.457554 0.27022 0.240381
199 1 0.671586 0.333353 0.321808
253 1 0.518237 0.335314 0.312205
307 1 0.423497 0.191288 0.328213
100 2 0.624903 0.261726 0.227005
157 1 0.65143 0.401718 0.253712
262 1 0.800325 0.352948 0.316939
316 1 0.683929 0.209678 0.336022
73 2 0.763873 0.248453 0.270282
208 1 0.819753 0.352732 0.308696
301 1 0.196613 0.419199 0.335535
58 2 0.302421 0.450222 0.28714
85 2 0.291797 0.564492 0.208946
67 2 0.540282 0.428661 0.259552
94 2 0.430659 0.53648 0.251355
310 1 0.432117 0.439348 0.315104
103 2 0.638115 0.544059 0.232593
319 1 0.658726 0.468482 0.310842
76 2 0.772684 0.461227 0.263269
142 1 0.15705 0.755661 0.255069
247 1 0.233338 0.570729 0.310538
304 1 0.203158 0.688099 0.305767
61 2 0.322612 0.657478 0.280643
151 1 0.393944 0.654694 0.254895
193 1 0.378431 0.559656 0.326556
70 2 0.532135 0.663373 0.267473
202 1 0.625311 0.584917 0.314578
256 1 0.563296 0.548213 0.302957
313 1 0.426616 0.683822 0.325705
160 1 0.629774 0.654832 0.253489
265 1 0.764202 0.569696 0.317537
322 1 0.640654 0.708819 0.319875
79 2 0.751533 0.681026 0.26877
211 1 0.806334 0.574377 0.308994
250 1 0.194602 0.822761 0.314809
88 2 0.27743 0.792474 0.252268
196 1 0.352473 0.795652 0.329171
97 2 0.436681 0.786272 0.268322
205 1 0.52217 0.757941 0.333095
259 1 0.467224 0.844899 0.33894
106 2 0.62806 0.792888 0.256794
268 1 0.597381 0.846291 0.332293
214 1 0.721995 0.782555 0.324829
110 1 0.216198 0.165526 0.397136
119 1 0.485032 0.210274 0.395298
128 1 0.745129 0.144672 0.386532
113 1 0.146191 0.495127 0.393019
2 2 0.248778 0.355222 0.403653
28 2 0.317765 0.223315 0.372895
122 1 0.445899 0.384236 0.383932
11 2 0.413238 0.345233 0.396207
37 2 0.574505 0.302222 0.387225
20 2 0.724645 0.328263 0.408686
131 1 0.649161 0.424926 0.378667
46 2 0.818718 0.238479 0.360307
5 2 0.196084 0.584804 0.446096
31 2 0.272818 0.507099 0.376961
14 2 0.43017 0.517872 0.398859
40 2 0.54989 0.447522 0.358904
23 2 0.659012 0.561232 0.392875
49 2 0.77936 0.460884 0.362502
116 1 0.169584 0.737443 0.36837
34 2 0.282625 0.665168 0.37475
125 1 0.390748 0.632929 0.387868
43 2 0.530987 0.632226 0.36895
134 1 0.646295 0.635699 0.387137
52 2 0.766897 0.675478 0.366655
8 2 0.264985 0.816943 0.386304
17 2 0.433363 0.761446 0.398549
26 2 0.636854 0.762258 0.393552
137 1 0.237554 0.202792 0.489135
146 1 0.461826 0.1647 0.506298
164 1 0.170304 0.255073 0.432978
218 1 0.338212 0.324024 0.467194
173 1 0.389818 0.21326 0.4496
155 1 0.685679 0.173794 0.510672
182 1 0.696911 0.205678 0.441219
227 1 0.591482 0.263953 0.425927
236 1 0.82785 0.18512 0.43376
140 1 0.190221 0.484054 0.521995
56 2 0.343925 0.261664 0.5244
83 2 0.205205 0.327227 0.493281
149 1 0.407903 0.402686 0.505994
272 1 0.33972 0.440152 0.443207
65 2 0.568296 0.196742 0.546149
92 2 0.492265 0.29168 0.481248
101 2 0.647683 0.301588 0.494579
158 1 0.671584 0.396059 0.508579
281 1 0.600818 0.41251 0.448699
74 2 0.789517 0.248299 0.500393
290 1 0.847718 0.288793 0.433102
59 2 0.314944 0.419737 0.52629
86 2 0.273769 0.581248 0.533435
167 1 0.195699 0.4459 0.452889
221 1 0.327963 0.573965 0.439838
275 1 0.308228 0.663676 0.459867
68 2 0.535738 0.449274 0.520475
95 2 0.411442 0.536866 0.497291
176 1 0.478347 0.432785 0.452067
104 2 0.663292 0.537118 0.490319
185 1 0.719224 0.451527 0.438313
230 1 0.557376 0.591865 0.445914
284 1 0.564353 0.605726 0.447188
77 2 0.789139 0.445919 0.510454
239 1 0.824472 0.408393 0.434814
293 1 0.775834 0.523116 0.439208
143 1 0.159528 0.772148 0.509417
62 2 0.289222 0.741755 0.526603
152 1 0.394136 0.645446 0.514423
170 1 0.199988 0.732451 0.440963
224 1 0.335298 0.787155 0.454684
71 2 0.527144 0.638675 0.523355
179 1 0.445421 0.644617 0.449282
161 1 0.649361 0.631238 0.498641
188 1 0.735342 0.639076 0.442393
233 1 0.542085 0.727384 0.447157
80 2 0.773371 0.66259 0.516838
242 1 0.810169 0.642039 0.440972
89 2 0.231721 0.858491 0.473561
278 1 0.353857 0.842434 0.446096
98 2 0.444594 0.775807 0.498328
107 2 0.65019 0.759981 0.492055
287 1 0.543689 0.798378 0.447625
296 1 0.754096 0.735689 0.443329
111 1 0.200876 0.21904 0.637267
120 1 0.470269 0.197149 0.65319
129 1 0.753313 0.166411 0.645637
114 1 0.173792 0.459288 0.625958
245 1 0.31442 0.341894 0.595804
299 1 0.224603 0.243224 0.564722
3 2 0.256274 0.339223 0.657667
29 2 0.322796 0.208212 0.614232
123 1 0.400005 0.411647 0.635271
191 1 0.435881 0.33903 0.565995
12 2 0.416202 0.320161 0.647892
38 2 0.578892 0.267777 0.632089
200 1 0.671078 0.333069 0.578817
254 1 0.558412 0.331215 0.555281
308 1 0.444096 0.207375 0.576675
21 2 0.73072 0.296502 0.656341
132 1 0.642406 0.397465 0.639933
263 1 0.790994 0.343846 0.56119
317 1 0.69328 0.205241 0.581546
47 2 0.827696 0.230174 0.593328
209 1 0.829668 0.344005 0.555261
302 1 0.205653 0.378553 0.573089
6 2 0.205142 0.576873 0.649144
32 2 0.307262 0.478876 0.615696
15 2 0.451304 0.539075 0.657605
41 2 0.533022 0.41529 0.617763
311 1 0.425103 0.465545 0.570387
24 2 0.63484 0.527252 0.649582
320 1 0.642262 0.454072 0.572587
50 2 0.767174 0.446356 0.612373
117 1 0.185983 0.75749 0.652918
248 1 0.222594 0.648018 0.564624
305 1 0.195161 0.762731 0.581806
35 2 0.300788 0.692238 0.619739
126 1 0.415897 0.663542 0.637001
194 1 0.421665 0.586301 0.579803
44 2 0.540535 0.666419 0.621228
203 1 0.626327 0.575408 0.568258
257 1 0.544871 0.54672 0.587513
314 1 0.413606 0.715576 0.570953
135 1 0.620622 0.645102 0.62913
266 1 0.745211 0.546471 0.555155
323 1 0.640525 0.703717 0.565688
53 2 0.751117 0.640636 0.613554
212 1 0.800499 0.550553 0.559862
251 1 0.222918 0.847944 0.554021
9 2 0.277636 0.842274 0.630827
197 1 0.369427 0.829383 0.571171
18 2 0.449453 0.794898 0.63645
206 1 0.523494 0.766362 0.565807
260 1 0.48834 0.84628 0.562787
27 2 0.661401 0.772823 0.634567
269 1 0.623989 0.825525 0.562161
215 1 0.729847 0.760318 0.56295
138 1 0.223258 0.215476 0.775381
147 1 0.460454 0.167224 0.769922
165 1 0.252308 0.230081 0.704311
219 1 0.363681 0.310306 0.722775
174 1 0.371496 0.193195 0.696116
156 1 0.738001 0.213728 0.78519
183 1 0.700219 0.192303 0.714984
228 1 0.607944 0.246643 0.679597
237 1 0.843629 0.233298 0.675161
141 1 0.163402 0.460144 0.77097
57 2 0.358879 0.220086 0.774115
84 2 0.252126 0.341483 0.755711
150 1 0.402637 0.417988 0.751005
273 1 0.322951 0.43909 0.699094
66 2 0.589331 0.167116 0.764991
93 2 0.498132 0.282701 0.724216
102 2 0.651252 0.306359 0.748625
159 1 0.702729 0.397147 0.77065
282 1 0.592269 0.410371 0.707816
75 2 0.807722 0.309874 0.743311