ITEM: TIMESTEP
0
ITEM: NUMBER OF ATOMS
324
ITEM: BOX BOUNDS pp pp pp
-2.8511199999999999e+00 1.6548880000000000e+01
-2.8511199999999999e+00 1.6548880000000000e+01
-4.2225440000000001e+00 2.7277456000000001e+01
ITEM: ATOMS id type xs ys zs
109 1 0.205672 0.199911 0.124522
217 1 0.364028 0.199951 0.202583
118 1 0.429416 0.191258 0.126982
172 1 0.478039 0.163209 0.193075
181 1 0.715214 0.164078 0.207855
163 1 0.213446 0.250419 0.190316
1 2 0.315279 0.244154 0.137845
271 1 0.358562 0.364232 0.137278
82 2 0.307109 0.33194 0.21549
10 2 0.528213 0.263364 0.151054
280 1 0.59058 0.374933 0.18828
175 1 0.46772 0.375254 0.17441
127 1 0.649732 0.214824 0.151759
226 1 0.648945 0.219851 0.151142
19 2 0.760347 0.272696 0.173797
184 1 0.719103 0.392752 0.191574
235 1 0.841078 0.204198 0.215196
112 1 0.184306 0.458543 0.126095
4 2 0.304102 0.481644 0.128789
166 1 0.230466 0.447816 0.193057
220 1 0.373652 0.44855 0.195552
274 1 0.381921 0.580811 0.139891
85 2 0.29704 0.566259 0.208764
121 1 0.430113 0.448354 0.111481
13 2 0.500458 0.507897 0.166944
130 1 0.63326 0.478103 0.158525
22 2 0.755825 0.520051 0.171554
229 1 0.62129 0.481765 0.1602
238 1 0.855023 0.456042 0.199258
115 1 0.190231 0.740997 0.136702
169 1 0.221311 0.697417 0.200997
223 1 0.364264 0.705913 0.211543
7 2 0.301983 0.77379 0.157331
283 1 0.57064 0.634441 0.186457
124 1 0.401671 0.703263 0.132919
178 1 0.450156 0.629299 0.190005
16 2 0.491988 0.756146 0.181332
133 1 0.620926 0.74645 0.176662
187 1 0.70147 0.647196 0.189618
232 1 0.620832 0.747055 0.17562
25 2 0.741106 0.781057 0.189521
286 1 0.615766 0.792752 0.1771
241 1 0.832934 0.698745 0.206755
277 1 0.38363 0.846045 0.20281
298 1 0.214226 0.196109 0.32555
145 1 0.473116 0.138626 0.267338
307 1 0.422805 0.190446 0.329308
154 1 0.662983 0.158447 0.272738
136 1 0.211427 0.282728 0.267308
244 1 0.28263 0.329863 0.323541
55 2 0.319223 0.217701 0.280321
190 1 0.3924 0.322663 0.312165
64 2 0.550413 0.208513 0.314294
91 2 0.457166 0.268896 0.240608
253 1 0.517879 0.334955 0.313061
199 1 0.674475 0.337129 0.323325
100 2 0.622023 0.258871 0.227122
157 1 0.654876 0.399617 0.252619
73 2 0.761042 0.251705 0.270187
289 1 0.822941 0.351106 0.229043
262 1 0.803364 0.354496 0.316038
208 1 0.82034 0.354073 0.308291
139 1 0.193066 0.503018 0.254952
58 2 0.302751 0.451515 0.287083
247 1 0.230277 0.5705 0.311625
193 1 0.378162 0.558065 0.326524
148 1 0.416817 0.402984 0.242544
67 2 0.543293 0.424126 0.258729
94 2 0.43464 0.533241 0.252948
310 1 0.433408 0.438214 0.314112
256 1 0.559229 0.546192 0.299831
103 2 0.635829 0.543347 0.23071
319 1 0.658315 0.467462 0.310022
76 2 0.77299 0.462914 0.262616
202 1 0.625556 0.583174 0.314157
265 1 0.766132 0.569523 0.31719
292 1 0.815326 0.585429 0.230343
211 1 0.80521 0.57466 0.309333
142 1 0.158698 0.755798 0.254874
304 1 0.199644 0.687135 0.306837
61 2 0.319526 0.657014 0.282312
151 1 0.392521 0.658211 0.254034
88 2 0.27891 0.792193 0.251013
196 1 0.352642 0.796122 0.328204
70 2 0.532148 0.663332 0.267202
313 1 0.427251 0.682894 0.32452
97 2 0.437067 0.786336 0.267904
160 1 0.628593 0.653482 0.253172
322 1 0.638691 0.707607 0.319425
79 2 0.750061 0.681064 0.268472
106 2 0.626634 0.792245 0.255674
214 1 0.718057 0.781887 0.324887
250 1 0.198041 0.8233 0.314182
268 1 0.596017 0.844369 0.331475
295 1 0.761108 0.820813 0.261676
110 1 0.217202 0.165408 0.399472
128 1 0.744911 0.148935 0.386558
236 1 0.829021 0.189188 0.431728
164 1 0.169299 0.256715 0.432139
2 2 0.247588 0.355806 0.403462
28 2 0.317599 0.223642 0.373751
119 1 0.481704 0.214587 0.397357
122 1 0.450156 0.382035 0.382858
11 2 0.411881 0.347118 0.395746
37 2 0.575351 0.304242 0.387822
227 1 0.590768 0.266732 0.425193
316 1 0.682906 0.213738 0.337066
20 2 0.730202 0.323531 0.410681
182 1 0.689206 0.202383 0.442456
46 2 0.822857 0.239202 0.357825
290 1 0.857855 0.289291 0.43016
301 1 0.196939 0.418625 0.335515
113 1 0.145033 0.495392 0.39231
31 2 0.271839 0.507324 0.377226
272 1 0.336567 0.441897 0.444343
221 1 0.327297 0.577234 0.441942
14 2 0.427646 0.516216 0.399533
40 2 0.549685 0.44965 0.358026
131 1 0.648884 0.426211 0.379215
23 2 0.658768 0.560705 0.393136
49 2 0.778193 0.459389 0.362167
185 1 0.720642 0.449797 0.438174
293 1 0.775965 0.522973 0.438503
239 1 0.829362 0.407482 0.434302
116 1 0.168545 0.740623 0.368741
170 1 0.197526 0.734763 0.441804
34 2 0.277878 0.664776 0.375966
125 1 0.386696 0.633179 0.386178
205 1 0.520308 0.75634 0.333348
43 2 0.529567 0.629299 0.368501
17 2 0.43143 0.75945 0.398327
134 1 0.644489 0.633796 0.386967
52 2 0.764826 0.675462 0.36654
26 2 0.633421 0.760007 0.393337
188 1 0.733979 0.638259 0.442343
296 1 0.751268 0.735797 0.443068
242 1 0.808356 0.642785 0.440944
8 2 0.267225 0.816363 0.386576
259 1 0.467294 0.84297 0.339019
146 1 0.459509 0.164272 0.506372
65 2 0.56528 0.197988 0.546885
155 1 0.691398 0.178482 0.514332
137 1 0.246358 0.205137 0.483605
218 1 0.334804 0.323712 0.467377
173 1 0.383069 0.211872 0.451546
56 2 0.343545 0.265545 0.525649
83 2 0.202847 0.327725 0.493045
92 2 0.490124 0.291409 0.479997
101 2 0.645689 0.302186 0.494784
158 1 0.677257 0.390353 0.507534
74 2 0.790194 0.256007 0.495826
5 2 0.194007 0.58427 0.447612
140 1 0.186483 0.489185 0.519746
167 1 0.193658 0.445697 0.452244
59 2 0.310555 0.421393 0.526635
86 2 0.272499 0.58376 0.53307
149 1 0.406576 0.401796 0.505556
68 2 0.533642 0.448593 0.520525
95 2 0.410449 0.535554 0.498432
176 1 0.477594 0.43121 0.45175
230 1 0.557681 0.5922 0.446203
284 1 0.561269 0.599626 0.446897
281 1 0.601322 0.414973 0.449843
104 2 0.663816 0.534874 0.490587
77 2 0.792609 0.445848 0.509106
266 1 0.747425 0.546013 0.553915
143 1 0.160039 0.775897 0.511634
275 1 0.304302 0.666139 0.461347
62 2 0.289261 0.745832 0.528699
152 1 0.393378 0.646495 0.513945
224 1 0.334549 0.787364 0.45587
71 2 0.527434 0.638132 0.522934
179 1 0.442165 0.64067 0.448152
233 1 0.53991 0.723517 0.447405
98 2 0.444195 0.775739 0.498173
287 1 0.541717 0.799392 0.447278
161 1 0.647094 0.631003 0.498401
80 2 0.771397 0.663467 0.516511
107 2 0.647595 0.759805 0.491927
89 2 0.231444 0.859927 0.473332
278 1 0.354011 0.843145 0.44678
251 1 0.224077 0.854552 0.554087
120 1 0.477324 0.192432 0.652719
129 1 0.754598 0.164835 0.647205
111 1 0.198963 0.223984 0.638207
245 1 0.313228 0.342797 0.596838
299 1 0.222449 0.244828 0.563997
3 2 0.260783 0.3415 0.656711
29 2 0.318226 0.205922 0.613084
302 1 0.204195 0.379356 0.573
191 1 0.440708 0.340405 0.565263
12 2 0.418565 0.310246 0.644934
38 2 0.581835 0.268573 0.632056
254 1 0.564273 0.334464 0.557058
308 1 0.441487 0.207521 0.576528
200 1 0.680932 0.331294 0.579873
21 2 0.734478 0.295757 0.656927
132 1 0.642473 0.395658 0.640026
263 1 0.79768 0.344578 0.560729
317 1 0.68542 0.201653 0.587148
47 2 0.821746 0.22611 0.589483
209 1 0.823812 0.34465 0.557239
114 1 0.172913 0.457459 0.626992
123 1 0.394292 0.416762 0.635108
6 2 0.201412 0.574136 0.651111
32 2 0.306332 0.481656 0.615435
15 2 0.450235 0.539216 0.659347
41 2 0.528384 0.4156 0.619571
311 1 0.422149 0.466728 0.569807
194 1 0.425979 0.588329 0.579764
257 1 0.547149 0.545308 0.58711
24 2 0.633863 0.525971 0.650269
320 1 0.638642 0.447315 0.572006
50 2 0.765949 0.445829 0.611505
203 1 0.627726 0.57249 0.568137
212 1 0.796621 0.550437 0.558762
117 1 0.193544 0.76699 0.656499
305 1 0.195091 0.760683 0.584431
248 1 0.220301 0.647541 0.561814
35 2 0.297253 0.685528 0.619091
126 1 0.413912 0.66357 0.637715
44 2 0.538021 0.665343 0.620966
314 1 0.409606 0.717044 0.571328
18 2 0.448677 0.795837 0.635655
206 1 0.523401 0.76619 0.565834
135 1 0.618243 0.643408 0.628617
323 1 0.63882 0.702895 0.565546
53 2 0.748276 0.639345 0.613047
27 2 0.659935 0.771705 0.634554
215 1 0.7277 0.760655 0.562787
9 2 0.290694 0.839145 0.627637
197 1 0.380192 0.837436 0.5658
260 1 0.498255 0.842604 0.562424
269 1 0.623918 0.825844 0.562203
174 1 0.373237 0.195444 0.693569
147 1 0.463706 0.166374 0.770838
66 2 0.591408 0.167136 0.766969
183 1 0.694185 0.188658 0.713711
165 1 0.253782 0.234114 0.705065
219 1 0.371388 0.313092 0.720613
57 2 0.364456 0.218161 0.773091
84 2 0.260451 0.347771 0.754491
93 2 0.501901 0.282614 0.723929
228 1 0.609661 0.251048 0.677163
102 2 0.654156 0.306936 0.747378
159 1 0.703823 0.397342 0.770453
237 1 0.846371 0.233584 0.672335
75 2 0.811545 0.313273 0.743093
291 1 0.837758 0.391125 0.677981
141 1 0.165262 0.45937 0.772976
87 2 0.189314 0.575377 0.744989
168 1 0.197918 0.450574 0.700719
150 1 0.394485 0.420426 0.75355
273 1 0.320748 0.448391 0.699275
222 1 0.323514 0.577415 0.699481
282 1 0.589387 0.412285 0.707669
96 2 0.434013 0.541123 0.757168
177 1 0.463324 0.415196 0.696149
231 1 0.551581 0.529292 0.721763
105 2 0.671085 0.528919 0.750687
186 1 0.718976 0.419059 0.697514
294 1 0.765224 0.536306 0.67874
78 2 0.82142 0.477031 0.744772
240 1 0.850908 0.507125 0.667226
144 1 0.195292 0.725271 0.763718
276 1 0.328794 0.611409 0.683544
63 2 0.316166 0.668699 0.760534
171 1 0.230447 0.679839 0.699157
225 1 0.357098 0.73273 0.676387
285 1 0.566394 0.623088 0.697102
72 2 0.550218 0.659954 0.77436
180 1 0.431669 0.650662 0.712708
234 1 0.551551 0.748896 0.681551
99 2 0.448473 0.780871 0.736739
162 1 0.652224 0.631252 0.757428
189 1 0.691096 0.639289 0.688568
81 2 0.783661 0.651213 0.744618
108 2 0.659239 0.760412 0.733128
297 1 0.76454 0.73105 0.677721
243 1 0.839133 0.62887 0.6729
252 1 0.18663 0.842848 0.768856
90 2 0.28109 0.807738 0.725203
279 1 0.379097 0.881207 0.68646
261 1 0.37694 0.884225 0.759709
288 1 0.557836 0.80611 0.684619
300 1 0.288493 0.168187 0.832998
309 1 0.407251 0.175441 0.84228
138 1 0.228931 0.223398 0.779145
30 2 0.299513 0.294298 0.846757
303 1 0.21487 0.397789 0.830857
192 1 0.402018 0.337616 0.799809
39 2 0.505325 0.264747 0.821083
255 1 0.417113 0.345058 0.873122
156 1 0.739793 0.215394 0.782356
201 1 0.61963 0.351594 0.831969
264 1 0.693203 0.396694 0.886331
318 1 0.640491 0.227247 0.831565
48 2 0.746604 0.318609 0.83213
210 1 0.850282 0.388638 0.807313
60 2 0.292151 0.495513 0.793028
33 2 0.319892 0.439746 0.881443
249 1 0.277157 0.56371 0.863076
195 1 0.379378 0.556973 0.847541
69 2 0.534726 0.422886 0.785661
42 2 0.515531 0.553555 0.844266
312 1 0.422322 0.447579 0.829484
321 1 0.616493 0.470726 0.851845
51 2 0.749502 0.480222 0.83312
204 1 0.651112 0.593249 0.830769
267 1 0.741051 0.57753 0.883646
213 1 0.846157 0.572234 0.804541
306 1 0.2206 0.639343 0.816106
36 2 0.339038 0.680766 0.852224
198 1 0.353141 0.787787 0.801034
153 1 0.42735 0.628926 0.79361
45 2 0.568665 0.700257 0.865955
258 1 0.450782 0.649208 0.887163
315 1 0.456754 0.733787 0.824243
207 1 0.570662 0.789127 0.800525
324 1 0.667244 0.714801 0.812251
54 2 0.781014 0.667009 0.838239
216 1 0.760167 0.763515 0.789095
270 1 0.666536 0.855648 0.780836
246 1 0.226716 0.357865 0.900244
ITEM: TIMESTEP
100
ITEM: NUMBER OF ATOMS
324
ITEM: BOX BOUNDS pp pp pp
-2.8511199999999999e+00 1.6548880000000000e+01
-2.8511199999999999e+00 1.6548880000000000e+01
-4.2225440000000001e+00 2.7277456000000001e+01
ITEM: ATOMS id type xs ys zs
109 1 0.20536 0.200353 0.125164
217 1 0.365648 0.198277 0.201888
118 1 0.429255 0.19116 0.127898
172 1 0.481883 0.163778 0.193757
181 1 0.717887 0.161491 0.210424
163 1 0.212903 0.252581 0.190499
1 2 0.315228 0.244207 0.138057
271 1 0.359758 0.363718 0.137228
82 2 0.307469 0.331931 0.215717
10 2 0.525442 0.265443 0.15191
280 1 0.590832 0.377821 0.186214
175 1 0.467953 0.374907 0.174112
127 1 0.657364 0.212838 0.155433
226 1 0.648294 0.218989 0.1503
19 2 0.760885 0.272246 0.173639
184 1 0.72621 0.389191 0.191725
235 1 0.839033 0.203788 0.216001
112 1 0.185195 0.458728 0.126175
4 2 0.304728 0.480801 0.128508
166 1 0.232742 0.447473 0.192974
220 1 0.374916 0.447858 0.195531
274 1 0.384369 0.576713 0.138554
85 2 0.297926 0.566611 0.208595
121 1 0.431888 0.447789 0.112413
13 2 0.495241 0.508074 0.169111
130 1 0.6542 0.467075 0.156914
22 2 0.762162 0.519072 0.171518
229 1 0.618579 0.482294 0.155962
238 1 0.855828 0.457585 0.199135
115 1 0.190747 0.741645 0.135966
169 1 0.221988 0.697461 0.200489
223 1 0.353972 0.697835 0.214766
7 2 0.302565 0.773742 0.156721
283 1 0.577001 0.64077 0.18519
124 1 0.393619 0.694972 0.12735
178 1 0.448867 0.625211 0.190272
16 2 0.452445 0.760233 0.181825
133 1 0.636313 0.762735 0.178477
187 1 0.719263 0.625326 0.197899
232 1 0.65665 0.685941 0.128972
25 2 0.756453 0.79355 0.19489
286 1 0.634216 0.823408 0.182286
241 1 0.83824 0.699452 0.208701
277 1 0.378164 0.853788 0.203836
298 1 0.214544 0.195615 0.326809
145 1 0.472261 0.138268 0.267935
307 1 0.422279 0.191185 0.329926
154 1 0.662145 0.160247 0.273646
136 1 0.212009 0.284006 0.268549
244 1 0.285692 0.331184 0.324461
55 2 0.318687 0.217878 0.28049
190 1 0.39239 0.32155 0.31236
64 2 0.550112 0.208242 0.314448
91 2 0.456663 0.268217 0.240823
253 1 0.516959 0.335129 0.313137
199 1 0.678015 0.339556 0.32477
100 2 0.61928 0.257804 0.225367
157 1 0.656857 0.395379 0.25092
73 2 0.758685 0.253811 0.269886
289 1 0.824264 0.351086 0.228223
262 1 0.804917 0.35525 0.315391
208 1 0.821765 0.354778 0.307357
139 1 0.193907 0.505309 0.253457
58 2 0.302776 0.452686 0.286605
247 1 0.227801 0.570267 0.312274
193 1 0.377705 0.555517 0.326338
148 1 0.4191 0.400466 0.242452
67 2 0.544413 0.422514 0.258268
94 2 0.435447 0.532615 0.253834
310 1 0.433396 0.437418 0.313421
256 1 0.557739 0.546603 0.297577
103 2 0.63218 0.538956 0.228872
319 1 0.656032 0.464885 0.308489
76 2 0.772619 0.461317 0.262278
202 1 0.625372 0.581433 0.312663
265 1 0.771197 0.575127 0.310719
292 1 0.816614 0.584104 0.237235
211 1 0.806132 0.569347 0.311316
142 1 0.159881 0.755745 0.255036
304 1 0.197548 0.68645 0.30782
61 2 0.318533 0.656592 0.283236
151 1 0.392265 0.660307 0.253546
88 2 0.279033 0.79221 0.250716
196 1 0.353067 0.796696 0.327929
70 2 0.531229 0.66321 0.266297
313 1 0.428188 0.684336 0.324372
97 2 0.437576 0.786613 0.269304
160 1 0.629941 0.653546 0.25118
322 1 0.633768 0.704849 0.318871
79 2 0.748905 0.686093 0.268958
106 2 0.630531 0.791348 0.256425
214 1 0.721382 0.78262 0.326954
250 1 0.200796 0.82374 0.314174
268 1 0.59097 0.841044 0.328521
295 1 0.764417 0.829885 0.268613
110 1 0.218022 0.165168 0.401947
128 1 0.743894 0.150601 0.387117
236 1 0.82564 0.200427 0.429889
164 1 0.168515 0.259266 0.430679
2 2 0.246967 0.356365 0.403292
28 2 0.317267 0.223583 0.37448
119 1 0.479078 0.217284 0.398808
122 1 0.452348 0.379891 0.382047
11 2 0.410903 0.347788 0.395503
37 2 0.573971 0.30621 0.387819
227 1 0.597974 0.265512 0.421962
316 1 0.681437 0.215223 0.33874
20 2 0.731543 0.321743 0.411266
182 1 0.690883 0.200551 0.445381
46 2 0.823852 0.240051 0.355483
290 1 0.858345 0.288478 0.428238
301 1 0.197903 0.418221 0.335527
113 1 0.145624 0.495351 0.392138
31 2 0.273218 0.50738 0.376995
272 1 0.332749 0.445389 0.444773
221 1 0.322043 0.574088 0.441886
14 2 0.428043 0.516354 0.400123
40 2 0.549418 0.451339 0.357676
131 1 0.650051 0.426706 0.379777
23 2 0.670094 0.558056 0.39108
49 2 0.778894 0.459013 0.361403
185 1 0.722639 0.449717 0.437643
293 1 0.776941 0.527751 0.4369
239 1 0.834342 0.407098 0.433981
116 1 0.168932 0.74386 0.368979
170 1 0.195186 0.736679 0.44242
34 2 0.275593 0.665348 0.376531
125 1 0.385306 0.630437 0.382404
205 1 0.514596 0.752688 0.3349
43 2 0.53063 0.627522 0.369359
17 2 0.429051 0.759828 0.39922
134 1 0.646397 0.630923 0.385551
52 2 0.764865 0.675794 0.366589
26 2 0.631818 0.759113 0.39195
188 1 0.732447 0.645362 0.44235
296 1 0.751239 0.746031 0.440006
242 1 0.815546 0.644965 0.438709
8 2 0.269223 0.818664 0.386602
259 1 0.468544 0.841561 0.338861
146 1 0.458519 0.164168 0.506496
65 2 0.56446 0.19845 0.547195
155 1 0.698182 0.180835 0.5185
137 1 0.256677 0.209158 0.475153
218 1 0.331072 0.320095 0.467086
173 1 0.380067 0.209517 0.452891
56 2 0.343701 0.266817 0.526476
83 2 0.201083 0.327975 0.493043
92 2 0.489871 0.291029 0.479275
101 2 0.646426 0.302399 0.495093
158 1 0.677868 0.387308 0.507056
74 2 0.791378 0.258361 0.496063
5 2 0.19196 0.585526 0.448752
140 1 0.183714 0.492151 0.519175
167 1 0.194343 0.445604 0.452637
59 2 0.308627 0.42141 0.526505
86 2 0.272846 0.583918 0.532573
149 1 0.403506 0.401425 0.504866
68 2 0.532528 0.44749 0.52082
95 2 0.410745 0.535435 0.498696
176 1 0.474938 0.428781 0.451746
230 1 0.549493 0.577736 0.44441
284 1 0.55321 0.600339 0.44914
281 1 0.598005 0.419703 0.450005
104 2 0.663242 0.530122 0.490047
77 2 0.791297 0.444145 0.507155
266 1 0.74963 0.544426 0.553646
143 1 0.16135 0.780845 0.513593
275 1 0.300159 0.664456 0.461489
62 2 0.28897 0.748399 0.530025
152 1 0.39185 0.647972 0.51598
224 1 0.329642 0.77809 0.458195
71 2 0.527174 0.638178 0.525733
179 1 0.421047 0.644052 0.448135
233 1 0.539373 0.735912 0.448596
98 2 0.444537 0.777658 0.498027
287 1 0.540711 0.80065 0.445417
161 1 0.642065 0.631015 0.501868
80 2 0.769788 0.660985 0.515401
107 2 0.648263 0.758001 0.490827
89 2 0.232209 0.861068 0.473043
278 1 0.353595 0.840748 0.450455
251 1 0.228198 0.866277 0.552072
120 1 0.480506 0.189525 0.652623
129 1 0.756245 0.164541 0.648572
111 1 0.198025 0.228325 0.639198
245 1 0.312083 0.343183 0.597483
299 1 0.221475 0.245887 0.564348
3 2 0.262443 0.342794 0.65667
29 2 0.316429 0.205501 0.612959
302 1 0.202873 0.378075 0.573016
191 1 0.443934 0.340836 0.563705
12 2 0.420077 0.307197 0.642613
38 2 0.582777 0.26834 0.632318
254 1 0.56721 0.335003 0.55777
308 1 0.440199 0.207238 0.576364
200 1 0.685843 0.330372 0.580425
21 2 0.735713 0.295749 0.657102
132 1 0.643819 0.393278 0.641071
263 1 0.802202 0.345304 0.561202
317 1 0.682311 0.199248 0.590765
47 2 0.820259 0.224913 0.588688
209 1 0.816225 0.345543 0.559573
114 1 0.172953 0.456127 0.627588
123 1 0.391111 0.419675 0.634728
6 2 0.200067 0.573466 0.651428
32 2 0.305844 0.482409 0.615316
15 2 0.44732 0.539331 0.660085
41 2 0.527158 0.4156 0.620195
311 1 0.419972 0.466811 0.569059
194 1 0.428062 0.588199 0.579777
257 1 0.547883 0.542904 0.586935
24 2 0.633599 0.52571 0.650255
320 1 0.63766 0.444794 0.572594
50 2 0.766871 0.44599 0.611609
203 1 0.629958 0.57077 0.568296
212 1 0.794628 0.548367 0.557332
117 1 0.195865 0.769693 0.658879
305 1 0.192397 0.757545 0.586452
248 1 0.220672 0.647623 0.560128
35 2 0.295487 0.683972 0.619009
126 1 0.413879 0.66391 0.638944
44 2 0.536151 0.664528 0.620628
314 1 0.407288 0.716498 0.572222
18 2 0.449502 0.796086 0.635916
206 1 0.524455 0.767152 0.565844
135 1 0.616435 0.644282 0.629196
323 1 0.64229 0.701723 0.565959
53 2 0.745401 0.63819 0.612655
27 2 0.65923 0.771342 0.634348
215 1 0.725959 0.758835 0.562339
9 2 0.290681 0.837278 0.625641
197 1 0.386286 0.838139 0.56436
260 1 0.503396 0.841317 0.562731
269 1 0.626366 0.825713 0.561645
174 1 0.372849 0.199647 0.691635
147 1 0.468366 0.163472 0.772707
66 2 0.594731 0.167321 0.767827
183 1 0.690203 0.187003 0.712795
165 1 0.254247 0.237024 0.70655
219 1 0.375659 0.319881 0.717088
57 2 0.364468 0.218711 0.77261
84 2 0.264501 0.35016 0.754574
93 2 0.502648 0.280374 0.723857
228 1 0.610712 0.255903 0.674946
102 2 0.654562 0.307061 0.746573
159 1 0.708632 0.398557 0.770722
237 1 0.848652 0.234842 0.670698
75 2 0.812595 0.313399 0.743115
291 1 0.837643 0.392633 0.678076
141 1 0.16594 0.46095 0.773936
87 2 0.188167 0.575943 0.745193
168 1 0.197714 0.451042 0.701476
150 1 0.38886 0.421881 0.756776
273 1 0.321037 0.45656 0.699805
222 1 0.322907 0.583068 0.697905
282 1 0.585625 0.419172 0.708095
96 2 0.432127 0.540053 0.75967
177 1 0.454604 0.408335 0.69641
231 1 0.549323 0.546623 0.718124
105 2 0.666941 0.524851 0.752216
186 1 0.717899 0.419643 0.697742
294 1 0.764583 0.536418 0.678499
78 2 0.821538 0.477986 0.744739
240 1 0.849682 0.50891 0.667313
144 1 0.195587 0.725724 0.763653
276 1 0.327548 0.612114 0.682846
63 2 0.316174 0.669263 0.760402
171 1 0.228814 0.679121 0.699332
225 1 0.358013 0.731974 0.676111
285 1 0.565715 0.624721 0.696512
72 2 0.547987 0.661147 0.774329
180 1 0.432558 0.649647 0.714003
234 1 0.551522 0.750066 0.682049
99 2 0.448463 0.781129 0.736937
162 1 0.653164 0.627902 0.757344
189 1 0.691092 0.638334 0.688887
81 2 0.783529 0.64984 0.74501
108 2 0.659573 0.759326 0.732788
297 1 0.763606 0.728797 0.677496
243 1 0.836399 0.630794 0.671908
252 1 0.187386 0.842827 0.768868
90 2 0.281535 0.808202 0.724601
279 1 0.379294 0.880903 0.685648
261 1 0.375705 0.884193 0.759297
288 1 0.557799 0.804609 0.684986
300 1 0.294547 0.167134 0.832106
309 1 0.414577 0.169357 0.839587
138 1 0.228766 0.229922 0.783074
30 2 0.298238 0.294752 0.846254
303 1 0.215919 0.398586 0.830482
192 1 0.405277 0.335591 0.800166
39 2 0.506672 0.263492 0.820983
255 1 0.415159 0.342262 0.873551
156 1 0.743064 0.214426 0.78165
201 1 0.621262 0.350632 0.831646
264 1 0.694369 0.395706 0.885927
318 1 0.643214 0.227032 0.831844
48 2 0.747247 0.318045 0.831074
210 1 0.850801 0.389981 0.807222
60 2 0.292159 0.502329 0.795141
33 2 0.319743 0.439891 0.881292
249 1 0.267753 0.564641 0.868261
195 1 0.386644 0.554114 0.854144
69 2 0.536438 0.421285 0.787529
42 2 0.517231 0.553216 0.843535
312 1 0.423447 0.445953 0.829767
321 1 0.617421 0.469908 0.851913
51 2 0.749921 0.480753 0.833433
204 1 0.651547 0.592745 0.831091
267 1 0.739193 0.576772 0.884778
213 1 0.846845 0.572247 0.804863
306 1 0.219076 0.640059 0.816318
36 2 0.337844 0.675343 0.851588
198 1 0.351499 0.785869 0.800271
153 1 0.422187 0.62562 0.793567
45 2 0.568409 0.700192 0.865992
258 1 0.451466 0.64914 0.887727
315 1 0.455564 0.732509 0.824511
207 1 0.569878 0.788915 0.800608
324 1 0.666466 0.713653 0.811762
54 2 0.779907 0.665666 0.838574
216 1 0.759797 0.762096 0.789286
270 1 0.666477 0.853941 0.780865
246 1 0.225974 0.357087 0.899736
ITEM: TIMESTEP
200
ITEM: NUMBER OF ATOMS
324
ITEM: BOX BOUNDS pp pp pp
-2.8511199999999999e+00 1.6548880000000000e+01
-2.8511199999999999e+00 1.6548880000000000e+01
-4.2225440000000001e+00 2.7277456000000001e+01
ITEM: ATOMS id type xs ys zs
109 1 0.203514 0.201268 0.127295
217 1 0.372167 0.195263 0.200118
118 1 0.428212 0.186156 0.131735
172 1 0.492002 0.165418 0.196176
181 1 0.723814 0.163805 0.214628
163 1 0.210923 0.25825 0.191353
1 2 0.3142 0.242812 0.138901
271 1 0.360427 0.360476 0.137564
82 2 0.308275 0.330566 0.216541
10 2 0.521307 0.267795 0.148605
280 1 0.59806 0.3723 0.184023
175 1 0.469122 0.376973 0.175186
127 1 0.661106 0.197222 0.157318
226 1 0.646275 0.224134 0.148104
19 2 0.763339 0.264621 0.172641
184 1 0.731097 0.391853 0.187586
235 1 0.835185 0.1974 0.221211
112 1 0.185457 0.458834 0.12659
4 2 0.305704 0.47646 0.127835
166 1 0.233168 0.445076 0.19262
220 1 0.372315 0.445852 0.197417
274 1 0.388338 0.569881 0.135179
85 2 0.300011 0.562569 0.210415
121 1 0.433732 0.441235 0.11178
13 2 0.498789 0.507418 0.168464
130 1 0.661427 0.469062 0.151376
22 2 0.775835 0.516829 0.174949
229 1 0.616193 0.483314 0.144522
238 1 0.877603 0.452 0.206758
115 1 0.190905 0.74064 0.134811
169 1 0.223256 0.696894 0.199522
223 1 0.34594 0.704462 0.213217
7 2 0.301103 0.774693 0.155548
283 1 0.580934 0.656411 0.183095
124 1 0.37242 0.691774 0.119213
178 1 0.434594 0.62993 0.186381
16 2 0.446351 0.759883 0.174607
133 1 0.643133 0.75139 0.164956
187 1 0.708093 0.668002 0.185088
232 1 0.655364 0.59903 0.103933
25 2 0.771771 0.795356 0.204183
286 1 0.681626 0.877271 0.180772
241 1 0.847118 0.699633 0.216873
277 1 0.350853 0.866951 0.213497
298 1 0.214827 0.19291 0.329764
145 1 0.469357 0.137903 0.269913
307 1 0.420757 0.192055 0.332303
154 1 0.656528 0.16537 0.276981
136 1 0.213942 0.289534 0.273154
244 1 0.294529 0.334314 0.327418
55 2 0.316803 0.217245 0.283258
190 1 0.392456 0.322392 0.312659
64 2 0.547829 0.208198 0.316025
91 2 0.455048 0.266776 0.242627
253 1 0.515018 0.334957 0.315049
199 1 0.690845 0.345648 0.329445
100 2 0.615623 0.250946 0.222797
157 1 0.663375 0.377578 0.250818
73 2 0.74926 0.263367 0.268507
289 1 0.836116 0.345934 0.228283
262 1 0.815111 0.356535 0.311683
208 1 0.826533 0.354744 0.305721
139 1 0.195331 0.513775 0.248929
58 2 0.300649 0.454116 0.285812
247 1 0.218158 0.568285 0.313952
193 1 0.378826 0.550931 0.327161
148 1 0.417583 0.399732 0.242101
67 2 0.54515 0.415567 0.257496
94 2 0.4393 0.52878 0.255813
310 1 0.435066 0.437262 0.311373
256 1 0.548721 0.545193 0.291259
103 2 0.632056 0.531143 0.214922
319 1 0.655486 0.459856 0.30341
76 2 0.773769 0.460144 0.260845
202 1 0.6233 0.574973 0.310644
265 1 0.782515 0.573451 0.313627
292 1 0.822709 0.586839 0.237454
211 1 0.800741 0.570534 0.313565
142 1 0.160222 0.754943 0.256647
304 1 0.190732 0.684757 0.311108
61 2 0.313893 0.650656 0.286618
151 1 0.391025 0.665348 0.252139
88 2 0.276946 0.792768 0.252289
196 1 0.350713 0.797236 0.327242
70 2 0.530639 0.664743 0.259879
313 1 0.429448 0.682495 0.323674
97 2 0.436305 0.788486 0.267711
160 1 0.643254 0.666056 0.25084
322 1 0.633535 0.698133 0.319023
79 2 0.763812 0.697381 0.274194
106 2 0.632974 0.797883 0.255906
214 1 0.714929 0.791966 0.329973
250 1 0.203936 0.827649 0.314604
268 1 0.590823 0.838849 0.331273
295 1 0.769186 0.836758 0.272643
110 1 0.211107 0.16129 0.40021
128 1 0.742118 0.161771 0.386778
236 1 0.818361 0.216756 0.427569
164 1 0.164427 0.263519 0.425859
2 2 0.243868 0.360071 0.402923
28 2 0.316326 0.223619 0.378418
119 1 0.479025 0.220741 0.399369
122 1 0.456935 0.380553 0.379573
11 2 0.407651 0.350241 0.394262
37 2 0.575509 0.311225 0.387083
227 1 0.610882 0.260049 0.419772
316 1 0.672131 0.224254 0.343062
20 2 0.736825 0.314666 0.410177
182 1 0.699982 0.198257 0.455779
46 2 0.827203 0.241083 0.348856
290 1 0.86116 0.283834 0.423786
301 1 0.200125 0.41631 0.335227
113 1 0.14509 0.494191 0.390575
31 2 0.272433 0.511075 0.377369
272 1 0.327742 0.444399 0.444866
221 1 0.317773 0.571947 0.43809
14 2 0.423824 0.512853 0.399445
40 2 0.551519 0.456899 0.355449
131 1 0.651237 0.431552 0.376877
23 2 0.670542 0.558002 0.391874
49 2 0.785361 0.456055 0.360274
185 1 0.720637 0.445335 0.435107
293 1 0.781978 0.532767 0.439041
239 1 0.835633 0.404217 0.429709
116 1 0.167712 0.752129 0.370321
170 1 0.19105 0.743671 0.445061
34 2 0.26706 0.666743 0.378446
125 1 0.382119 0.628681 0.383431
205 1 0.514017 0.744954 0.333529
43 2 0.526985 0.620698 0.368579
17 2 0.423977 0.756139 0.399858
134 1 0.64359 0.632472 0.383757
52 2 0.768718 0.67754 0.368335
26 2 0.628056 0.756413 0.391703
188 1 0.716625 0.656639 0.442292
296 1 0.746187 0.752554 0.438309
242 1 0.82255 0.652874 0.440977
8 2 0.273935 0.81894 0.38923
259 1 0.462976 0.842865 0.342392
146 1 0.459199 0.160943 0.508795
65 2 0.562748 0.200648 0.548061
155 1 0.724012 0.183053 0.530653
137 1 0.269318 0.218252 0.454802
218 1 0.330958 0.324143 0.46403
173 1 0.392133 0.206664 0.453048
56 2 0.341825 0.269188 0.527073
83 2 0.197412 0.32524 0.492008
92 2 0.49101 0.288089 0.475773
101 2 0.647212 0.302434 0.494135
158 1 0.675873 0.382077 0.505003
74 2 0.79808 0.273631 0.495661
5 2 0.18553 0.586047 0.449917
140 1 0.177107 0.497955 0.519588
167 1 0.192828 0.447678 0.45388
59 2 0.301416 0.421909 0.526319
86 2 0.270061 0.586908 0.532246
149 1 0.397198 0.403187 0.504793
68 2 0.529576 0.442684 0.521994
95 2 0.407718 0.535492 0.499065
176 1 0.472546 0.424525 0.451819
230 1 0.521076 0.580767 0.449295
284 1 0.575604 0.600058 0.444581
281 1 0.59567 0.422217 0.447486
104 2 0.657858 0.52525 0.488702
77 2 0.787796 0.437546 0.502612
266 1 0.753244 0.538129 0.55264
143 1 0.159075 0.794128 0.519991
275 1 0.298163 0.67388 0.46588
62 2 0.285983 0.756371 0.534406
152 1 0.394915 0.651229 0.518208
224 1 0.328754 0.7847 0.460167
71 2 0.528448 0.637352 0.521072
179 1 0.417632 0.648604 0.448578
233 1 0.534212 0.714361 0.446405
98 2 0.444904 0.775841 0.500239
287 1 0.538645 0.795337 0.447896
161 1 0.64921 0.631319 0.504659
80 2 0.770716 0.654857 0.513381
107 2 0.647595 0.755949 0.488433
89 2 0.230845 0.865198 0.472936
278 1 0.357175 0.849446 0.45209
251 1 0.23447 0.880893 0.552375
120 1 0.482119 0.185641 0.651323
129 1 0.760918 0.164695 0.652297
111 1 0.195774 0.239382 0.643496
245 1 0.310228 0.344078 0.597723
299 1 0.217209 0.25639 0.571909
3 2 0.268744 0.347802 0.658133
29 2 0.310652 0.20466 0.612819
302 1 0.198572 0.375405 0.573676
191 1 0.450381 0.340611 0.559976
12 2 0.422295 0.299171 0.637674
38 2 0.586357 0.268742 0.634259
254 1 0.574413 0.335268 0.560142
308 1 0.437378 0.207502 0.576344
200 1 0.691665 0.325971 0.580884
21 2 0.740623 0.296843 0.658687
132 1 0.642041 0.391412 0.640785
263 1 0.815487 0.351636 0.573609
317 1 0.679001 0.19565 0.596814
47 2 0.808342 0.220167 0.585679
209 1 0.827667 0.341065 0.564822
114 1 0.17374 0.452099 0.629284
123 1 0.389354 0.419615 0.634617
6 2 0.195029 0.571841 0.652353
32 2 0.303482 0.484539 0.614181
15 2 0.441033 0.537154 0.663105
41 2 0.523122 0.415992 0.62265
311 1 0.417807 0.4663 0.569212
194 1 0.428382 0.587296 0.581293
257 1 0.54957 0.542283 0.586814
24 2 0.631096 0.523538 0.652567
320 1 0.637362 0.441696 0.572471
50 2 0.765123 0.448784 0.613612
203 1 0.632594 0.567671 0.565676
212 1 0.785636 0.540459 0.555446
117 1 0.192513 0.776131 0.657952
305 1 0.184609 0.746808 0.587966
248 1 0.221204 0.644926 0.555225
35 2 0.289016 0.678734 0.618789
126 1 0.412059 0.662926 0.641882
44 2 0.533475 0.662612 0.621132
314 1 0.404821 0.722651 0.577717
18 2 0.453788 0.798727 0.637407
206 1 0.527958 0.769403 0.567526
135 1 0.611651 0.643002 0.626253
323 1 0.638491 0.700741 0.563904
53 2 0.740624 0.634661 0.61017
27 2 0.658619 0.769885 0.633867
215 1 0.722245 0.750762 0.561113
9 2 0.295429 0.833933 0.621823
197 1 0.394413 0.847117 0.566363
260 1 0.511226 0.835577 0.564235
269 1 0.634571 0.821844 0.559597
174 1 0.373249 0.201947 0.691374
147 1 0.479808 0.154284 0.767846
66 2 0.60377 0.166529 0.770183
183 1 0.684739 0.189648 0.707987
165 1 0.254277 0.248178 0.710229
219 1 0.37595 0.320211 0.715399
57 2 0.367844 0.219699 0.77239
84 2 0.269386 0.364423 0.756162
93 2 0.502302 0.275544 0.722378
228 1 0.611662 0.266268 0.671104
102 2 0.655258 0.310368 0.744224
159 1 0.712296 0.394853 0.770965
237 1 0.85357 0.236026 0.668536
75 2 0.818835 0.315442 0.742673
291 1 0.83714 0.398458 0.679243
141 1 0.168445 0.463602 0.774726
87 2 0.182682 0.578759 0.74494
168 1 0.202219 0.454199 0.702903
150 1 0.387981 0.422572 0.757142
273 1 0.327709 0.4702 0.699011
222 1 0.322732 0.600846 0.693348
282 1 0.574736 0.432077 0.7053
96 2 0.430697 0.540748 0.763347