ITEM: TIMESTEP
0
ITEM: NUMBER OF ATOMS
2496
ITEM: BOX BOUNDS pp pp pp
-4.2564999999999999e-02 1.9757434000000000e+01
-4.2564999999999999e-02 1.9757434000000000e+01
-2.0645100000000000e-01 1.0559355200000000e+02
ITEM: ATOMS id type xs ys zs
1 1 0.00214975 0.00214975 0.00195133
257 1 0.0854055 0.0437776 0.0210454
1473 2 0.0851464 0.168143 0.00547592
1601 2 0.0851464 0.168143 0.0311994
17 1 0.25114 0.00214975 0.00195133
273 1 0.334395 0.0437776 0.0210454
321 1 0.209512 0.167884 0.0210454
385 1 0.209512 0.0437776 0.0210454
1489 2 0.334136 0.168143 0.00547592
1617 2 0.334136 0.168143 0.0311994
33 1 0.50013 0.00214975 0.00195133
289 1 0.583385 0.0437776 0.0210454
337 1 0.458502 0.167884 0.0210454
401 1 0.458502 0.0437776 0.0210454
1505 2 0.583126 0.168143 0.00547592
1633 2 0.583126 0.168143 0.0311994
49 1 0.749119 0.00214975 0.00195133
353 1 0.707492 0.167884 0.0210454
417 1 0.707492 0.0437776 0.0210454
305 1 0.832375 0.0437776 0.0210454
369 1 0.956481 0.167884 0.0210454
433 1 0.956481 0.0437776 0.0210454
1521 2 0.832116 0.168143 0.00547592
1649 2 0.832116 0.168143 0.0311994
5 1 0.00214975 0.25114 0.00195133
261 1 0.0854055 0.292768 0.0210454
21 1 0.25114 0.25114 0.00195133
277 1 0.334395 0.292768 0.0210454
389 1 0.209512 0.292768 0.0210454
37 1 0.50013 0.25114 0.00195133
293 1 0.583385 0.292768 0.0210454
405 1 0.458502 0.292768 0.0210454
53 1 0.749119 0.25114 0.00195133
421 1 0.707492 0.292768 0.0210454
309 1 0.832375 0.292768 0.0210454
437 1 0.956481 0.292768 0.0210454
9 1 0.00214975 0.50013 0.00195133
265 1 0.0854055 0.541757 0.0210454
1477 2 0.0851464 0.417133 0.00547592
1605 2 0.0851464 0.417133 0.0311994
25 1 0.25114 0.50013 0.00195133
281 1 0.334395 0.541757 0.0210454
325 1 0.209512 0.416874 0.0210454
393 1 0.209512 0.541757 0.0210454
1493 2 0.334136 0.417133 0.00547592
1621 2 0.334136 0.417133 0.0311994
41 1 0.50013 0.50013 0.00195133
297 1 0.583385 0.541757 0.0210454
341 1 0.458502 0.416874 0.0210454
409 1 0.458502 0.541757 0.0210454
1509 2 0.583126 0.417133 0.00547592
1637 2 0.583126 0.417133 0.0311994
57 1 0.749119 0.50013 0.00195133
357 1 0.707492 0.416874 0.0210454
425 1 0.707492 0.541757 0.0210454
313 1 0.832375 0.541757 0.0210454
373 1 0.956481 0.416874 0.0210454
441 1 0.956481 0.541757 0.0210454
1525 2 0.832116 0.417133 0.00547592
1653 2 0.832116 0.417133 0.0311994
13 1 0.00214975 0.749119 0.00195133
269 1 0.0854055 0.790747 0.0210454
1481 2 0.0851464 0.666123 0.00547592
1609 2 0.0851464 0.666123 0.0311994
29 1 0.25114 0.749119 0.00195133
285 1 0.334395 0.790747 0.0210454
329 1 0.209512 0.665864 0.0210454
397 1 0.209512 0.790747 0.0210454
1497 2 0.334136 0.666123 0.00547592
1625 2 0.334136 0.666123 0.0311994
45 1 0.50013 0.749119 0.00195133
301 1 0.583385 0.790747 0.0210454
345 1 0.458502 0.665864 0.0210454
413 1 0.458502 0.790747 0.0210454
1513 2 0.583126 0.666123 0.00547592
1641 2 0.583126 0.666123 0.0311994
61 1 0.749119 0.749119 0.00195133
361 1 0.707492 0.665864 0.0210454
429 1 0.707492 0.790747 0.0210454
317 1 0.832375 0.790747 0.0210454
377 1 0.956481 0.665864 0.0210454
445 1 0.956481 0.790747 0.0210454
1529 2 0.832116 0.666123 0.00547592
1657 2 0.832116 0.666123 0.0311994
1485 2 0.0851464 0.915113 0.00547592
1613 2 0.0851464 0.915113 0.0311994
333 1 0.209512 0.914854 0.0210454
1501 2 0.334136 0.915113 0.00547592
1629 2 0.334136 0.915113 0.0311994
349 1 0.458502 0.914854 0.0210454
1517 2 0.583126 0.915113 0.00547592
1645 2 0.583126 0.915113 0.0311994
365 1 0.707492 0.914854 0.0210454
381 1 0.956481 0.914854 0.0210454
1533 2 0.832116 0.915113 0.00547592
1661 2 0.832116 0.915113 0.0311994
193 1 0.0848873 0.0435185 0.0661591
1345 2 0.00214975 0.00214975 0.0434606
1409 2 0.168143 0.0851464 0.0437439
1665 2 0.0851464 0.168143 0.0560051
65 1 0.209771 0.168402 0.0661591
129 1 0.209771 0.0435185 0.0661591
209 1 0.333877 0.0435185 0.0661591
1361 2 0.25114 0.00214975 0.0434606
1681 2 0.334136 0.168143 0.0560051
81 1 0.458761 0.168402 0.0661591
145 1 0.458761 0.0435185 0.0661591
225 1 0.582867 0.0435185 0.0661591
1377 2 0.50013 0.00214975 0.0434606
1425 2 0.417133 0.0851464 0.0437439
1697 2 0.583126 0.168143 0.0560051
97 1 0.707751 0.168402 0.0661591
161 1 0.707751 0.0435185 0.0661591
1393 2 0.749119 0.00214975 0.0434606
1441 2 0.666123 0.0851464 0.0437439
113 1 0.956741 0.168402 0.0661591
177 1 0.956741 0.0435185 0.0661591
241 1 0.831857 0.0435185 0.0661591
1457 2 0.915113 0.0851464 0.0437439
1713 2 0.832116 0.168143 0.0560051
197 1 0.0848873 0.292508 0.0661591
1349 2 0.00214975 0.25114 0.0434606
1413 2 0.168143 0.334136 0.0437439
133 1 0.209771 0.292508 0.0661591
213 1 0.333877 0.292508 0.0661591
1365 2 0.25114 0.25114 0.0434606
149 1 0.458761 0.292508 0.0661591
229 1 0.582867 0.292508 0.0661591
1381 2 0.50013 0.25114 0.0434606
1429 2 0.417133 0.334136 0.0437439
165 1 0.707751 0.292508 0.0661591
1397 2 0.749119 0.25114 0.0434606
1445 2 0.666123 0.334136 0.0437439
181 1 0.956741 0.292508 0.0661591
245 1 0.831857 0.292508 0.0661591
1461 2 0.915113 0.334136 0.0437439
201 1 0.0848873 0.541498 0.0661591
1353 2 0.00214975 0.50013 0.0434606
1417 2 0.168143 0.583126 0.0437439
1669 2 0.0851464 0.417133 0.0560051
69 1 0.209771 0.417392 0.0661591
137 1 0.209771 0.541498 0.0661591
217 1 0.333877 0.541498 0.0661591
1369 2 0.25114 0.50013 0.0434606
1685 2 0.334136 0.417133 0.0560051
85 1 0.458761 0.417392 0.0661591
153 1 0.458761 0.541498 0.0661591
233 1 0.582867 0.541498 0.0661591
1385 2 0.50013 0.50013 0.0434606
1433 2 0.417133 0.583126 0.0437439
1701 2 0.583126 0.417133 0.0560051
101 1 0.707751 0.417392 0.0661591
169 1 0.707751 0.541498 0.0661591
1401 2 0.749119 0.50013 0.0434606
1449 2 0.666123 0.583126 0.0437439
117 1 0.956741 0.417392 0.0661591
185 1 0.956741 0.541498 0.0661591
249 1 0.831857 0.541498 0.0661591
1465 2 0.915113 0.583126 0.0437439
1717 2 0.832116 0.417133 0.0560051
205 1 0.0848873 0.790488 0.0661591
1357 2 0.00214975 0.749119 0.0434606
1673 2 0.0851464 0.666123 0.0560051
73 1 0.209771 0.666382 0.0661591
141 1 0.209771 0.790488 0.0661591
221 1 0.333877 0.790488 0.0661591
1373 2 0.25114 0.749119 0.0434606
1689 2 0.334136 0.666123 0.0560051
89 1 0.458761 0.666382 0.0661591
157 1 0.458761 0.790488 0.0661591
237 1 0.582867 0.790488 0.0661591
1389 2 0.50013 0.749119 0.0434606
1705 2 0.583126 0.666123 0.0560051
105 1 0.707751 0.666382 0.0661591
173 1 0.707751 0.790488 0.0661591
1405 2 0.749119 0.749119 0.0434606
121 1 0.956741 0.666382 0.0661591
189 1 0.956741 0.790488 0.0661591
253 1 0.831857 0.790488 0.0661591
1721 2 0.832116 0.666123 0.0560051
1421 2 0.168143 0.832116 0.0437439
1677 2 0.0851464 0.915113 0.0560051
77 1 0.209771 0.915372 0.0661591
1693 2 0.334136 0.915113 0.0560051
93 1 0.458761 0.915372 0.0661591
1437 2 0.417133 0.832116 0.0437439
1709 2 0.583126 0.915113 0.0560051
109 1 0.707751 0.915372 0.0661591
1453 2 0.666123 0.832116 0.0437439
125 1 0.956741 0.915372 0.0661591
1469 2 0.915113 0.832116 0.0437439
1725 2 0.832116 0.915113 0.0560051
449 1 0.168143 0.0851464 0.0852532
1537 2 0.0851464 0.168143 0.0817286
1857 2 0.00214975 0.00214975 0.0887777
1553 2 0.334136 0.168143 0.0817286
1873 2 0.25114 0.00214975 0.0887777
465 1 0.417133 0.0851464 0.0852532
1569 2 0.583126 0.168143 0.0817286
1889 2 0.50013 0.00214975 0.0887777
481 1 0.666123 0.0851464 0.0852532
1905 2 0.749119 0.00214975 0.0887777
497 1 0.915113 0.0851464 0.0852532
1585 2 0.832116 0.168143 0.0817286
453 1 0.168143 0.334136 0.0852532
1861 2 0.00214975 0.25114 0.0887777
1877 2 0.25114 0.25114 0.0887777
469 1 0.417133 0.334136 0.0852532
1893 2 0.50013 0.25114 0.0887777
485 1 0.666123 0.334136 0.0852532
1909 2 0.749119 0.25114 0.0887777
501 1 0.915113 0.334136 0.0852532
457 1 0.168143 0.583126 0.0852532
1541 2 0.0851464 0.417133 0.0817286
1865 2 0.00214975 0.50013 0.0887777
1557 2 0.334136 0.417133 0.0817286
1881 2 0.25114 0.50013 0.0887777
473 1 0.417133 0.583126 0.0852532
1573 2 0.583126 0.417133 0.0817286
1897 2 0.50013 0.50013 0.0887777
489 1 0.666123 0.583126 0.0852532
1913 2 0.749119 0.50013 0.0887777
505 1 0.915113 0.583126 0.0852532
1589 2 0.832116 0.417133 0.0817286
1545 2 0.0851464 0.666123 0.0817286
1869 2 0.00214975 0.749119 0.0887777
1561 2 0.334136 0.666123 0.0817286
1885 2 0.25114 0.749119 0.0887777
1577 2 0.583126 0.666123 0.0817286
1901 2 0.50013 0.749119 0.0887777
1917 2 0.749119 0.749119 0.0887777
1593 2 0.832116 0.666123 0.0817286
461 1 0.168143 0.832116 0.0852532
1549 2 0.0851464 0.915113 0.0817286
1565 2 0.334136 0.915113 0.0817286
477 1 0.417133 0.832116 0.0852532
1581 2 0.583126 0.915113 0.0817286
493 1 0.666123 0.832116 0.0852532
509 1 0.915113 0.832116 0.0852532
1597 2 0.832116 0.915113 0.0817286
705 1 0.00240889 0.126774 0.104347
833 1 0.126515 0.126774 0.104347
1729 2 0.168143 0.0851464 0.126762
1793 2 0.0851464 0.168143 0.127046
1985 2 0.00214975 0.00214975 0.114501
721 1 0.251399 0.126774 0.104347
849 1 0.375505 0.126774 0.104347
1809 2 0.334136 0.168143 0.127046
2001 2 0.25114 0.00214975 0.114501
737 1 0.500389 0.126774 0.104347
1745 2 0.417133 0.0851464 0.126762
1825 2 0.583126 0.168143 0.127046
2017 2 0.50013 0.00214975 0.114501
753 1 0.749379 0.126774 0.104347
865 1 0.624495 0.126774 0.104347
1761 2 0.666123 0.0851464 0.126762
2033 2 0.749119 0.00214975 0.114501
881 1 0.873485 0.126774 0.104347
1777 2 0.915113 0.0851464 0.126762
1841 2 0.832116 0.168143 0.127046
709 1 0.00240889 0.375764 0.104347
769 1 0.126515 0.250881 0.104347
837 1 0.126515 0.375764 0.104347
1733 2 0.168143 0.334136 0.126762
1989 2 0.00214975 0.25114 0.114501
725 1 0.251399 0.375764 0.104347
785 1 0.375505 0.250881 0.104347
853 1 0.375505 0.375764 0.104347
2005 2 0.25114 0.25114 0.114501
741 1 0.500389 0.375764 0.104347
1749 2 0.417133 0.334136 0.126762
2021 2 0.50013 0.25114 0.114501
757 1 0.749379 0.375764 0.104347
801 1 0.624495 0.250881 0.104347
869 1 0.624495 0.375764 0.104347
1765 2 0.666123 0.334136 0.126762
2037 2 0.749119 0.25114 0.114501
817 1 0.873485 0.250881 0.104347
885 1 0.873485 0.375764 0.104347
1781 2 0.915113 0.334136 0.126762
773 1 0.126515 0.49987 0.104347
1737 2 0.168143 0.583126 0.126762
1797 2 0.0851464 0.417133 0.127046
1993 2 0.00214975 0.50013 0.114501
789 1 0.375505 0.49987 0.104347
1813 2 0.334136 0.417133 0.127046
2009 2 0.25114 0.50013 0.114501
1753 2 0.417133 0.583126 0.126762
1829 2 0.583126 0.417133 0.127046
2025 2 0.50013 0.50013 0.114501
805 1 0.624495 0.49987 0.104347
1769 2 0.666123 0.583126 0.126762
2041 2 0.749119 0.50013 0.114501
821 1 0.873485 0.49987 0.104347
1785 2 0.915113 0.583126 0.126762
1845 2 0.832116 0.417133 0.127046
713 1 0.00240889 0.624754 0.104347
777 1 0.126515 0.74886 0.104347
841 1 0.126515 0.624754 0.104347
1801 2 0.0851464 0.666123 0.127046
1997 2 0.00214975 0.749119 0.114501
729 1 0.251399 0.624754 0.104347
793 1 0.375505 0.74886 0.104347
857 1 0.375505 0.624754 0.104347
1817 2 0.334136 0.666123 0.127046
2013 2 0.25114 0.749119 0.114501
745 1 0.500389 0.624754 0.104347
1833 2 0.583126 0.666123 0.127046
2029 2 0.50013 0.749119 0.114501
761 1 0.749379 0.624754 0.104347
809 1 0.624495 0.74886 0.104347
873 1 0.624495 0.624754 0.104347
2045 2 0.749119 0.749119 0.114501
825 1 0.873485 0.74886 0.104347
889 1 0.873485 0.624754 0.104347
1849 2 0.832116 0.666123 0.127046
717 1 0.00240889 0.873744 0.104347
781 1 0.126515 0.99785 0.104347
845 1 0.126515 0.873744 0.104347
1741 2 0.168143 0.832116 0.126762
1805 2 0.0851464 0.915113 0.127046
733 1 0.251399 0.873744 0.104347
797 1 0.375505 0.99785 0.104347
861 1 0.375505 0.873744 0.104347
1821 2 0.334136 0.915113 0.127046
749 1 0.500389 0.873744 0.104347
1757 2 0.417133 0.832116 0.126762
1837 2 0.583126 0.915113 0.127046
765 1 0.749379 0.873744 0.104347
813 1 0.624495 0.99785 0.104347
877 1 0.624495 0.873744 0.104347
1773 2 0.666123 0.832116 0.126762
829 1 0.873485 0.99785 0.104347
893 1 0.873485 0.873744 0.104347
1789 2 0.915113 0.832116 0.126762
1853 2 0.832116 0.915113 0.127046
513 1 0.126774 0.00240889 0.149461
577 1 0.126774 0.126515 0.149461
1921 2 0.00214975 0.00214975 0.16503
2049 2 0.00214975 0.00214975 0.139307
529 1 0.375764 0.00240889 0.149461
593 1 0.375764 0.126515 0.149461
641 1 0.250881 0.126515 0.149461
1937 2 0.25114 0.00214975 0.16503
2065 2 0.25114 0.00214975 0.139307
657 1 0.49987 0.126515 0.149461
1953 2 0.50013 0.00214975 0.16503
2081 2 0.50013 0.00214975 0.139307
545 1 0.624754 0.00240889 0.149461
609 1 0.624754 0.126515 0.149461
673 1 0.74886 0.126515 0.149461
1969 2 0.749119 0.00214975 0.16503
2097 2 0.749119 0.00214975 0.139307
561 1 0.873744 0.00240889 0.149461
625 1 0.873744 0.126515 0.149461
689 1 0.99785 0.126515 0.149461
517 1 0.126774 0.251399 0.149461
581 1 0.126774 0.375505 0.149461
1925 2 0.00214975 0.25114 0.16503
2053 2 0.00214975 0.25114 0.139307
533 1 0.375764 0.251399 0.149461
597 1 0.375764 0.375505 0.149461
645 1 0.250881 0.375505 0.149461
1941 2 0.25114 0.25114 0.16503
2069 2 0.25114 0.25114 0.139307
661 1 0.49987 0.375505 0.149461
1957 2 0.50013 0.25114 0.16503
2085 2 0.50013 0.25114 0.139307
549 1 0.624754 0.251399 0.149461
613 1 0.624754 0.375505 0.149461
677 1 0.74886 0.375505 0.149461
1973 2 0.749119 0.25114 0.16503
2101 2 0.749119 0.25114 0.139307
565 1 0.873744 0.251399 0.149461
629 1 0.873744 0.375505 0.149461
693 1 0.99785 0.375505 0.149461
521 1 0.126774 0.500389 0.149461
1929 2 0.00214975 0.50013 0.16503
2057 2 0.00214975 0.50013 0.139307
537 1 0.375764 0.500389 0.149461
1945 2 0.25114 0.50013 0.16503
2073 2 0.25114 0.50013 0.139307
1961 2 0.50013 0.50013 0.16503
2089 2 0.50013 0.50013 0.139307
553 1 0.624754 0.500389 0.149461
1977 2 0.749119 0.50013 0.16503
2105 2 0.749119 0.50013 0.139307
569 1 0.873744 0.500389 0.149461
525 1 0.126774 0.749379 0.149461
585 1 0.126774 0.624495 0.149461
1933 2 0.00214975 0.749119 0.16503
2061 2 0.00214975 0.749119 0.139307
541 1 0.375764 0.749379 0.149461
601 1 0.375764 0.624495 0.149461
649 1 0.250881 0.624495 0.149461
1949 2 0.25114 0.749119 0.16503
2077 2 0.25114 0.749119 0.139307
665 1 0.49987 0.624495 0.149461
1965 2 0.50013 0.749119 0.16503
2093 2 0.50013 0.749119 0.139307
557 1 0.624754 0.749379 0.149461
617 1 0.624754 0.624495 0.149461
681 1 0.74886 0.624495 0.149461
1981 2 0.749119 0.749119 0.16503
2109 2 0.749119 0.749119 0.139307
573 1 0.873744 0.749379 0.149461
633 1 0.873744 0.624495 0.149461
697 1 0.99785 0.624495 0.149461
589 1 0.126774 0.873485 0.149461
605 1 0.375764 0.873485 0.149461
653 1 0.250881 0.873485 0.149461
669 1 0.49987 0.873485 0.149461
621 1 0.624754 0.873485 0.149461
685 1 0.74886 0.873485 0.149461
637 1 0.873744 0.873485 0.149461
701 1 0.99785 0.873485 0.149461
897 1 0.0851464 0.168143 0.168555
1217 1 0.0435185 0.0848873 0.187649
2241 2 0.168143 0.0851464 0.17208
2369 2 0.168143 0.0851464 0.197803
913 1 0.334136 0.168143 0.168555
1233 1 0.292508 0.0848873 0.187649
929 1 0.583126 0.168143 0.168555
1249 1 0.541498 0.0848873 0.187649
2257 2 0.417133 0.0851464 0.17208
2385 2 0.417133 0.0851464 0.197803
1265 1 0.790488 0.0848873 0.187649
2273 2 0.666123 0.0851464 0.17208
2401 2 0.666123 0.0851464 0.197803
945 1 0.832116 0.168143 0.168555
2289 2 0.915113 0.0851464 0.17208
2417 2 0.915113 0.0851464 0.197803
1153 1 0.168402 0.209771 0.187649
1221 1 0.0435185 0.333877 0.187649
1281 1 0.0435185 0.209771 0.187649
2245 2 0.168143 0.334136 0.17208
2373 2 0.168143 0.334136 0.197803
1237 1 0.292508 0.333877 0.187649
1297 1 0.292508 0.209771 0.187649
1169 1 0.417392 0.209771 0.187649
1253 1 0.541498 0.333877 0.187649
1313 1 0.541498 0.209771 0.187649
2261 2 0.417133 0.334136 0.17208
2389 2 0.417133 0.334136 0.197803
1185 1 0.666382 0.209771 0.187649
1269 1 0.790488 0.333877 0.187649
1329 1 0.790488 0.209771 0.187649
2277 2 0.666123 0.334136 0.17208
2405 2 0.666123 0.334136 0.197803
1201 1 0.915372 0.209771 0.187649
2293 2 0.915113 0.334136 0.17208
2421 2 0.915113 0.334136 0.197803
901 1 0.0851464 0.417133 0.168555
1157 1 0.168402 0.458761 0.187649
1225 1 0.0435185 0.582867 0.187649
1285 1 0.0435185 0.458761 0.187649
2249 2 0.168143 0.583126 0.17208
2377 2 0.168143 0.583126 0.197803
917 1 0.334136 0.417133 0.168555
1241 1 0.292508 0.582867 0.187649
1301 1 0.292508 0.458761 0.187649
933 1 0.583126 0.417133 0.168555
1173 1 0.417392 0.458761 0.187649
1257 1 0.541498 0.582867 0.187649
1317 1 0.541498 0.458761 0.187649
2265 2 0.417133 0.583126 0.17208
2393 2 0.417133 0.583126 0.197803
1189 1 0.666382 0.458761 0.187649
1273 1 0.790488 0.582867 0.187649
1333 1 0.790488 0.458761 0.187649
2281 2 0.666123 0.583126 0.17208
2409 2 0.666123 0.583126 0.197803
949 1 0.832116 0.417133 0.168555
1205 1 0.915372 0.458761 0.187649
2297 2 0.915113 0.583126 0.17208
2425 2 0.915113 0.583126 0.197803
905 1 0.0851464 0.666123 0.168555
1161 1 0.168402 0.707751 0.187649
1289 1 0.0435185 0.707751 0.187649
921 1 0.334136 0.666123 0.168555
1305 1 0.292508 0.707751 0.187649
937 1 0.583126 0.666123 0.168555
1177 1 0.417392 0.707751 0.187649
1321 1 0.541498 0.707751 0.187649
1193 1 0.666382 0.707751 0.187649
1337 1 0.790488 0.707751 0.187649
953 1 0.832116 0.666123 0.168555
1209 1 0.915372 0.707751 0.187649
909 1 0.0851464 0.915113 0.168555
1165 1 0.168402 0.956741 0.187649
1229 1 0.0435185 0.831857 0.187649
1293 1 0.0435185 0.956741 0.187649
2253 2 0.168143 0.832116 0.17208
2381 2 0.168143 0.832116 0.197803
925 1 0.334136 0.915113 0.168555
1245 1 0.292508 0.831857 0.187649
1309 1 0.292508 0.956741 0.187649
941 1 0.583126 0.915113 0.168555
1181 1 0.417392 0.956741 0.187649
1261 1 0.541498 0.831857 0.187649
1325 1 0.541498 0.956741 0.187649
2269 2 0.417133 0.832116 0.17208
2397 2 0.417133 0.832116 0.197803
1197 1 0.666382 0.956741 0.187649
1277 1 0.790488 0.831857 0.187649
1341 1 0.790488 0.956741 0.187649
2285 2 0.666123 0.832116 0.17208
2413 2 0.666123 0.832116 0.197803
957 1 0.832116 0.915113 0.168555
1213 1 0.915372 0.956741 0.187649
2301 2 0.915113 0.832116 0.17208
2429 2 0.915113 0.832116 0.197803
961 1 0.0437776 0.0854055 0.232763
2113 2 0.0851464 0.168143 0.210064
2177 2 0.00214975 0.00214975 0.210347
2433 2 0.168143 0.0851464 0.222609
977 1 0.292768 0.0854055 0.232763
2129 2 0.334136 0.168143 0.210064
2193 2 0.25114 0.00214975 0.210347
993 1 0.541757 0.0854055 0.232763
2145 2 0.583126 0.168143 0.210064
2209 2 0.50013 0.00214975 0.210347
2449 2 0.417133 0.0851464 0.222609
1009 1 0.790747 0.0854055 0.232763
2225 2 0.749119 0.00214975 0.210347
2465 2 0.666123 0.0851464 0.222609
2161 2 0.832116 0.168143 0.210064
2481 2 0.915113 0.0851464 0.222609
965 1 0.0437776 0.334395 0.232763
1025 1 0.0437776 0.209512 0.232763
1089 1 0.167884 0.209512 0.232763
2181 2 0.00214975 0.25114 0.210347
2437 2 0.168143 0.334136 0.222609
981 1 0.292768 0.334395 0.232763
1041 1 0.292768 0.209512 0.232763
2197 2 0.25114 0.25114 0.210347
997 1 0.541757 0.334395 0.232763
1057 1 0.541757 0.209512 0.232763
1105 1 0.416874 0.209512 0.232763
2213 2 0.50013 0.25114 0.210347
2453 2 0.417133 0.334136 0.222609
1013 1 0.790747 0.334395 0.232763
1073 1 0.790747 0.209512 0.232763
1121 1 0.665864 0.209512 0.232763
2229 2 0.749119 0.25114 0.210347
2469 2 0.666123 0.334136 0.222609
1137 1 0.914854 0.209512 0.232763
2485 2 0.915113 0.334136 0.222609
969 1 0.0437776 0.583385 0.232763
1029 1 0.0437776 0.458502 0.232763
1093 1 0.167884 0.458502 0.232763
2117 2 0.0851464 0.417133 0.210064
2185 2 0.00214975 0.50013 0.210347
2441 2 0.168143 0.583126 0.222609
985 1 0.292768 0.583385 0.232763
1045 1 0.292768 0.458502 0.232763
2133 2 0.334136 0.417133 0.210064
2201 2 0.25114 0.50013 0.210347
1001 1 0.541757 0.583385 0.232763
1061 1 0.541757 0.458502 0.232763
1109 1 0.416874 0.458502 0.232763
2149 2 0.583126 0.417133 0.210064
2217 2 0.50013 0.50013 0.210347
2457 2 0.417133 0.583126 0.222609
1017 1 0.790747 0.583385 0.232763
1077 1 0.790747 0.458502 0.232763
1125 1 0.665864 0.458502 0.232763
2233 2 0.749119 0.50013 0.210347
2473 2 0.666123 0.583126 0.222609
1141 1 0.914854 0.458502 0.232763
2165 2 0.832116 0.417133 0.210064
2489 2 0.915113 0.583126 0.222609
1033 1 0.0437776 0.707492 0.232763
1097 1 0.167884 0.707492 0.232763
2121 2 0.0851464 0.666123 0.210064
2189 2 0.00214975 0.749119 0.210347
1049 1 0.292768 0.707492 0.232763
2137 2 0.334136 0.666123 0.210064
2205 2 0.25114 0.749119 0.210347
1065 1 0.541757 0.707492 0.232763
1113 1 0.416874 0.707492 0.232763
2153 2 0.583126 0.666123 0.210064
2221 2 0.50013 0.749119 0.210347
1081 1 0.790747 0.707492 0.232763
1129 1 0.665864 0.707492 0.232763
2237 2 0.749119 0.749119 0.210347
1145 1 0.914854 0.707492 0.232763
2169 2 0.832116 0.666123 0.210064
973 1 0.0437776 0.832375 0.232763
1037 1 0.0437776 0.956481 0.232763
1101 1 0.167884 0.956481 0.232763
2125 2 0.0851464 0.915113 0.210064
2445 2 0.168143 0.832116 0.222609
989 1 0.292768 0.832375 0.232763
1053 1 0.292768 0.956481 0.232763
2141 2 0.334136 0.915113 0.210064
1005 1 0.541757 0.832375 0.232763
1069 1 0.541757 0.956481 0.232763
1117 1 0.416874 0.956481 0.232763
2157 2 0.583126 0.915113 0.210064
2461 2 0.417133 0.832116 0.222609
1021 1 0.790747 0.832375 0.232763
1085 1 0.790747 0.956481 0.232763
1133 1 0.665864 0.956481 0.232763
2477 2 0.666123 0.832116 0.222609
1149 1 0.914854 0.956481 0.232763
2173 2 0.832116 0.915113 0.210064
2493 2 0.915113 0.832116 0.222609
2 1 0.00214975 0.00214975 0.251857
1474 2 0.0851464 0.168143 0.255381
2305 2 0.168143 0.0851464 0.248332
18 1 0.25114 0.00214975 0.251857
1490 2 0.334136 0.168143 0.255381
34 1 0.50013 0.00214975 0.251857
1506 2 0.583126 0.168143 0.255381
2321 2 0.417133 0.0851464 0.248332
50 1 0.749119 0.00214975 0.251857
2337 2 0.666123 0.0851464 0.248332
1522 2 0.832116 0.168143 0.255381
2353 2 0.915113 0.0851464 0.248332
6 1 0.00214975 0.25114 0.251857
2309 2 0.168143 0.334136 0.248332
22 1 0.25114 0.25114 0.251857
38 1 0.50013 0.25114 0.251857
2325 2 0.417133 0.334136 0.248332
54 1 0.749119 0.25114 0.251857
2341 2 0.666123 0.334136 0.248332
2357 2 0.915113 0.334136 0.248332
10 1 0.00214975 0.50013 0.251857
1478 2 0.0851464 0.417133 0.255381
2313 2 0.168143 0.583126 0.248332
26 1 0.25114 0.50013 0.251857
1494 2 0.334136 0.417133 0.255381
42 1 0.50013 0.50013 0.251857
1510 2 0.583126 0.417133 0.255381
2329 2 0.417133 0.583126 0.248332
58 1 0.749119 0.50013 0.251857
2345 2 0.666123 0.583126 0.248332
1526 2 0.832116 0.417133 0.255381
2361 2 0.915113 0.583126 0.248332
14 1 0.00214975 0.749119 0.251857
1482 2 0.0851464 0.666123 0.255381
30 1 0.25114 0.749119 0.251857
1498 2 0.334136 0.666123 0.255381
46 1 0.50013 0.749119 0.251857
1514 2 0.583126 0.666123 0.255381
62 1 0.749119 0.749119 0.251857
1530 2 0.832116 0.666123 0.255381
1486 2 0.0851464 0.915113 0.255381
2317 2 0.168143 0.832116 0.248332
1502 2 0.334136 0.915113 0.255381
1518 2 0.583126 0.915113 0.255381
2333 2 0.417133 0.832116 0.248332
2349 2 0.666123 0.832116 0.248332
1534 2 0.832116 0.915113 0.255381
2365 2 0.915113 0.832116 0.248332
258 1 0.0854055 0.0437776 0.270951
1346 2 0.00214975 0.00214975 0.293366
1410 2 0.168143 0.0851464 0.293649
1602 2 0.0851464 0.168143 0.281105
274 1 0.334395 0.0437776 0.270951
322 1 0.209512 0.167884 0.270951
386 1 0.209512 0.0437776 0.270951
1362 2 0.25114 0.00214975 0.293366
1618 2 0.334136 0.168143 0.281105
290 1 0.583385 0.0437776 0.270951
338 1 0.458502 0.167884 0.270951
402 1 0.458502 0.0437776 0.270951
1378 2 0.50013 0.00214975 0.293366
1426 2 0.417133 0.0851464 0.293649
1634 2 0.583126 0.168143 0.281105
354 1 0.707492 0.167884 0.270951
418 1 0.707492 0.0437776 0.270951
1394 2 0.749119 0.00214975 0.293366
1442 2 0.666123 0.0851464 0.293649
306 1 0.832375 0.0437776 0.270951
370 1 0.956481 0.167884 0.270951
434 1 0.956481 0.0437776 0.270951
1458 2 0.915113 0.0851464 0.293649
1650 2 0.832116 0.168143 0.281105
262 1 0.0854055 0.292768 0.270951
1350 2 0.00214975 0.25114 0.293366
1414 2 0.168143 0.334136 0.293649
278 1 0.334395 0.292768 0.270951
390 1 0.209512 0.292768 0.270951
1366 2 0.25114 0.25114 0.293366
294 1 0.583385 0.292768 0.270951
406 1 0.458502 0.292768 0.270951
1382 2 0.50013 0.25114 0.293366
1430 2 0.417133 0.334136 0.293649
422 1 0.707492 0.292768 0.270951
1398 2 0.749119 0.25114 0.293366
1446 2 0.666123 0.334136 0.293649
310 1 0.832375 0.292768 0.270951
438 1 0.956481 0.292768 0.270951
1462 2 0.915113 0.334136 0.293649
266 1 0.0854055 0.541757 0.270951
1354 2 0.00214975 0.50013 0.293366
1418 2 0.168143 0.583126 0.293649
1606 2 0.0851464 0.417133 0.281105
282 1 0.334395 0.541757 0.270951
326 1 0.209512 0.416874 0.270951
394 1 0.209512 0.541757 0.270951
1370 2 0.25114 0.50013 0.293366
1622 2 0.334136 0.417133 0.281105
298 1 0.583385 0.541757 0.270951
342 1 0.458502 0.416874 0.270951
410 1 0.458502 0.541757 0.270951
1386 2 0.50013 0.50013 0.293366
1434 2 0.417133 0.583126 0.293649
1638 2 0.583126 0.417133 0.281105
358 1 0.707492 0.416874 0.270951
426 1 0.707492 0.541757 0.270951
1402 2 0.749119 0.50013 0.293366
1450 2 0.666123 0.583126 0.293649
314 1 0.832375 0.541757 0.270951
374 1 0.956481 0.416874 0.270951
442 1 0.956481 0.541757 0.270951
1466 2 0.915113 0.583126 0.293649
1654 2 0.832116 0.417133 0.281105
270 1 0.0854055 0.790747 0.270951
1358 2 0.00214975 0.749119 0.293366
1610 2 0.0851464 0.666123 0.281105
286 1 0.334395 0.790747 0.270951
330 1 0.209512 0.665864 0.270951
398 1 0.209512 0.790747 0.270951
1374 2 0.25114 0.749119 0.293366
1626 2 0.334136 0.666123 0.281105
302 1 0.583385 0.790747 0.270951
346 1 0.458502 0.665864 0.270951
414 1 0.458502 0.790747 0.270951
1390 2 0.50013 0.749119 0.293366
1642 2 0.583126 0.666123 0.281105
362 1 0.707492 0.665864 0.270951
430 1 0.707492 0.790747 0.270951
1406 2 0.749119 0.749119 0.293366
318 1 0.832375 0.790747 0.270951
378 1 0.956481 0.665864 0.270951
446 1 0.956481 0.790747 0.270951
1658 2 0.832116 0.666123 0.281105
1422 2 0.168143 0.832116 0.293649
1614 2 0.0851464 0.915113 0.281105
334 1 0.209512 0.914854 0.270951
1630 2 0.334136 0.915113 0.281105
350 1 0.458502 0.914854 0.270951
1438 2 0.417133 0.832116 0.293649
1646 2 0.583126 0.915113 0.281105
366 1 0.707492 0.914854 0.270951
1454 2 0.666123 0.832116 0.293649
382 1 0.956481 0.914854 0.270951
1470 2 0.915113 0.832116 0.293649
1662 2 0.832116 0.915113 0.281105
194 1 0.0848873 0.0435185 0.316065
1538 2 0.0851464 0.168143 0.331634
1666 2 0.0851464 0.168143 0.305911
66 1 0.209771 0.168402 0.316065
130 1 0.209771 0.0435185 0.316065
210 1 0.333877 0.0435185 0.316065
1554 2 0.334136 0.168143 0.331634
1682 2 0.334136 0.168143 0.305911
82 1 0.458761 0.168402 0.316065
146 1 0.458761 0.0435185 0.316065
226 1 0.582867 0.0435185 0.316065
1570 2 0.583126 0.168143 0.331634
1698 2 0.583126 0.168143 0.305911
98 1 0.707751 0.168402 0.316065
162 1 0.707751 0.0435185 0.316065
114 1 0.956741 0.168402 0.316065
178 1 0.956741 0.0435185 0.316065
242 1 0.831857 0.0435185 0.316065
1586 2 0.832116 0.168143 0.331634
1714 2 0.832116 0.168143 0.305911
198 1 0.0848873 0.292508 0.316065
134 1 0.209771 0.292508 0.316065
214 1 0.333877 0.292508 0.316065
150 1 0.458761 0.292508 0.316065
230 1 0.582867 0.292508 0.316065
166 1 0.707751 0.292508 0.316065
182 1 0.956741 0.292508 0.316065
246 1 0.831857 0.292508 0.316065
202 1 0.0848873 0.541498 0.316065
1542 2 0.0851464 0.417133 0.331634
1670 2 0.0851464 0.417133 0.305911
70 1 0.209771 0.417392 0.316065
138 1 0.209771 0.541498 0.316065
218 1 0.333877 0.541498 0.316065
1558 2 0.334136 0.417133 0.331634
1686 2 0.334136 0.417133 0.305911
86 1 0.458761 0.417392 0.316065
154 1 0.458761 0.541498 0.316065
234 1 0.582867 0.541498 0.316065
1574 2 0.583126 0.417133 0.331634
1702 2 0.583126 0.417133 0.305911
102 1 0.707751 0.417392 0.316065
170 1 0.707751 0.541498 0.316065
118 1 0.956741 0.417392 0.316065
186 1 0.956741 0.541498 0.316065
250 1 0.831857 0.541498 0.316065
1590 2 0.832116 0.417133 0.331634
1718 2 0.832116 0.417133 0.305911
206 1 0.0848873 0.790488 0.316065
1546 2 0.0851464 0.666123 0.331634
1674 2 0.0851464 0.666123 0.305911
74 1 0.209771 0.666382 0.316065
142 1 0.209771 0.790488 0.316065
222 1 0.333877 0.790488 0.316065
1562 2 0.334136 0.666123 0.331634
1690 2 0.334136 0.666123 0.305911
90 1 0.458761 0.666382 0.316065
158 1 0.458761 0.790488 0.316065
238 1 0.582867 0.790488 0.316065
1578 2 0.583126 0.666123 0.331634
1706 2 0.583126 0.666123 0.305911
106 1 0.707751 0.666382 0.316065
174 1 0.707751 0.790488 0.316065
122 1 0.956741 0.666382 0.316065
190 1 0.956741 0.790488 0.316065
254 1 0.831857 0.790488 0.316065
1594 2 0.832116 0.666123 0.331634
1722 2 0.832116 0.666123 0.305911
1550 2 0.0851464 0.915113 0.331634
1678 2 0.0851464 0.915113 0.305911
78 1 0.209771 0.915372 0.316065
1566 2 0.334136 0.915113 0.331634
1694 2 0.334136 0.915113 0.305911
94 1 0.458761 0.915372 0.316065
1582 2 0.583126 0.915113 0.331634
1710 2 0.583126 0.915113 0.305911
110 1 0.707751 0.915372 0.316065
126 1 0.956741 0.915372 0.316065
1598 2 0.832116 0.915113 0.331634
1726 2 0.832116 0.915113 0.305911
450 1 0.168143 0.0851464 0.335159
706 1 0.00240889 0.126774 0.354253
834 1 0.126515 0.126774 0.354253
1858 2 0.00214975 0.00214975 0.338683
1986 2 0.00214975 0.00214975 0.364407
722 1 0.251399 0.126774 0.354253
850 1 0.375505 0.126774 0.354253
1874 2 0.25114 0.00214975 0.338683
2002 2 0.25114 0.00214975 0.364407
466 1 0.417133 0.0851464 0.335159
738 1 0.500389 0.126774 0.354253
1890 2 0.50013 0.00214975 0.338683
2018 2 0.50013 0.00214975 0.364407
482 1 0.666123 0.0851464 0.335159
754 1 0.749379 0.126774 0.354253
866 1 0.624495 0.126774 0.354253
1906 2 0.749119 0.00214975 0.338683
2034 2 0.749119 0.00214975 0.364407
498 1 0.915113 0.0851464 0.335159
882 1 0.873485 0.126774 0.354253
454 1 0.168143 0.334136 0.335159
710 1 0.00240889 0.375764 0.354253
770 1 0.126515 0.250881 0.354253
838 1 0.126515 0.375764 0.354253
1862 2 0.00214975 0.25114 0.338683
1990 2 0.00214975 0.25114 0.364407
726 1 0.251399 0.375764 0.354253
786 1 0.375505 0.250881 0.354253
854 1 0.375505 0.375764 0.354253
1878 2 0.25114 0.25114 0.338683
2006 2 0.25114 0.25114 0.364407
470 1 0.417133 0.334136 0.335159
742 1 0.500389 0.375764 0.354253
1894 2 0.50013 0.25114 0.338683
2022 2 0.50013 0.25114 0.364407
486 1 0.666123 0.334136 0.335159
758 1 0.749379 0.375764 0.354253
802 1 0.624495 0.250881 0.354253
870 1 0.624495 0.375764 0.354253
1910 2 0.749119 0.25114 0.338683
2038 2 0.749119 0.25114 0.364407
502 1 0.915113 0.334136 0.335159
818 1 0.873485 0.250881 0.354253
886 1 0.873485 0.375764 0.354253