LAMMPS data file. CGCMM style. atom_style full generated by VMD/TopoTools v1.5 on Thu Dec 18 13:18:04 MSK 2025
 4 atoms
 0 bonds
 0 angles
 0 dihedrals
 0 impropers
 2 atom types
 0 bond types
 0 angle types
 0 dihedral types
 0 improper types
 -6.390000 8.210000  xlo xhi
 -6.390000 8.210000  ylo yhi
 -6.390000 8.210000  zlo zhi

# Pair Coeffs
#
# 1  Co
# 2  Ta

 Masses

 1 58.933201 # Co
 2 180.947906 # Ta

 Atoms

1 1 1 0.000000 0.000000 1.820000 1.820000 # Co 
2 1 1 0.000000 1.820000 1.820000 0.000000 # Co 
3 1 1 0.000000 1.820000 0.000000 1.820000 # Co 
4 1 2 0.000000 0.000000 0.000000 0.000000 # Ta 

