ITEM: TIMESTEP
0
ITEM: NUMBER OF ATOMS
16
ITEM: BOX BOUNDS pp pp pp
-3.8475000000000001e+00 8.4525000000000006e+00
-3.8475000000000001e+00 8.4525000000000006e+00
-3.8475000000000001e+00 8.4525000000000006e+00
ITEM: ATOMS id type xs ys zs
1 1 0.312805 0.312805 0.312805
2 1 0.312805 0.312805 0.562398
5 1 0.562398 0.312805 0.312805
6 1 0.562398 0.312805 0.562398
3 1 0.312805 0.562398 0.312805
4 1 0.312805 0.562398 0.562398
7 1 0.562398 0.562398 0.312805
8 1 0.562398 0.562398 0.562398
9 2 0.437602 0.437602 0.437602
10 2 0.437602 0.437602 0.687195
13 2 0.687195 0.437602 0.437602
14 2 0.687195 0.437602 0.687195
11 2 0.437602 0.687195 0.437602
12 2 0.437602 0.687195 0.687195
15 2 0.687195 0.687195 0.437602
16 2 0.687195 0.687195 0.687195
ITEM: TIMESTEP
36
ITEM: NUMBER OF ATOMS
16
ITEM: BOX BOUNDS pp pp pp
-3.8475000000000001e+00 8.4525000000000006e+00
-3.8475000000000001e+00 8.4525000000000006e+00
-3.8475000000000001e+00 8.4525000000000006e+00
ITEM: ATOMS id type xs ys zs
1 1 0.335576 0.335576 0.335576
2 1 0.328396 0.328396 0.551495
5 1 0.551495 0.328396 0.328396
6 1 0.554115 0.303828 0.554115
3 1 0.328396 0.551495 0.328396
4 1 0.303828 0.554115 0.554115
7 1 0.554115 0.554115 0.303828
8 1 0.56435 0.56435 0.56435
9 2 0.445045 0.445045 0.445045
10 2 0.434323 0.434323 0.689759
13 2 0.689759 0.434323 0.434323
14 2 0.679932 0.433749 0.679932
11 2 0.434323 0.689759 0.434323
12 2 0.433749 0.679932 0.679932
15 2 0.679932 0.679932 0.433749
16 2 0.682667 0.682667 0.682667
