ITEM: TIMESTEP
0
ITEM: NUMBER OF ATOMS
108
ITEM: BOX BOUNDS pp pp pp
-2.7500000000000000e+00 1.1850000000000000e+01
-2.7500000000000000e+00 1.1850000000000000e+01
-2.7500000000000000e+00 1.1850000000000000e+01
ITEM: ATOMS id type xs ys zs
82 2 0.188356 0.188356 0.188356
91 2 0.437671 0.188356 0.188356
100 2 0.686986 0.188356 0.188356
85 2 0.188356 0.437671 0.188356
28 1 0.313014 0.313014 0.188356
94 2 0.437671 0.437671 0.188356
37 1 0.562329 0.313014 0.188356
103 2 0.686986 0.437671 0.188356
46 1 0.811644 0.313014 0.188356
88 2 0.188356 0.686986 0.188356
31 1 0.313014 0.562329 0.188356
97 2 0.437671 0.686986 0.188356
40 1 0.562329 0.562329 0.188356
106 2 0.686986 0.686986 0.188356
49 1 0.811644 0.562329 0.188356
34 1 0.313014 0.811644 0.188356
43 1 0.562329 0.811644 0.188356
52 1 0.811644 0.811644 0.188356
83 2 0.188356 0.188356 0.437671
55 1 0.313014 0.188356 0.313014
92 2 0.437671 0.188356 0.437671
64 1 0.562329 0.188356 0.313014
101 2 0.686986 0.188356 0.437671
73 1 0.811644 0.188356 0.313014
1 1 0.188356 0.313014 0.313014
86 2 0.188356 0.437671 0.437671
10 1 0.437671 0.313014 0.313014
29 1 0.313014 0.313014 0.437671
58 1 0.313014 0.437671 0.313014
95 2 0.437671 0.437671 0.437671
19 1 0.686986 0.313014 0.313014
38 1 0.562329 0.313014 0.437671
67 1 0.562329 0.437671 0.313014
104 2 0.686986 0.437671 0.437671
47 1 0.811644 0.313014 0.437671
76 1 0.811644 0.437671 0.313014
4 1 0.188356 0.562329 0.313014
89 2 0.188356 0.686986 0.437671
13 1 0.437671 0.562329 0.313014
32 1 0.313014 0.562329 0.437671
61 1 0.313014 0.686986 0.313014
98 2 0.437671 0.686986 0.437671
22 1 0.686986 0.562329 0.313014
41 1 0.562329 0.562329 0.437671
70 1 0.562329 0.686986 0.313014
107 2 0.686986 0.686986 0.437671
50 1 0.811644 0.562329 0.437671
79 1 0.811644 0.686986 0.313014
7 1 0.188356 0.811644 0.313014
16 1 0.437671 0.811644 0.313014
35 1 0.313014 0.811644 0.437671
25 1 0.686986 0.811644 0.313014
44 1 0.562329 0.811644 0.437671
53 1 0.811644 0.811644 0.437671
84 2 0.188356 0.188356 0.686986
56 1 0.313014 0.188356 0.562329
93 2 0.437671 0.188356 0.686986
65 1 0.562329 0.188356 0.562329
102 2 0.686986 0.188356 0.686986
74 1 0.811644 0.188356 0.562329
2 1 0.188356 0.313014 0.562329
87 2 0.188356 0.437671 0.686986
11 1 0.437671 0.313014 0.562329
30 1 0.313014 0.313014 0.686986
59 1 0.313014 0.437671 0.562329
96 2 0.437671 0.437671 0.686986
20 1 0.686986 0.313014 0.562329
39 1 0.562329 0.313014 0.686986
68 1 0.562329 0.437671 0.562329
105 2 0.686986 0.437671 0.686986
48 1 0.811644 0.313014 0.686986
77 1 0.811644 0.437671 0.562329
5 1 0.188356 0.562329 0.562329
90 2 0.188356 0.686986 0.686986
14 1 0.437671 0.562329 0.562329
33 1 0.313014 0.562329 0.686986
62 1 0.313014 0.686986 0.562329
99 2 0.437671 0.686986 0.686986
23 1 0.686986 0.562329 0.562329
42 1 0.562329 0.562329 0.686986
71 1 0.562329 0.686986 0.562329
108 2 0.686986 0.686986 0.686986
51 1 0.811644 0.562329 0.686986
80 1 0.811644 0.686986 0.562329
8 1 0.188356 0.811644 0.562329
17 1 0.437671 0.811644 0.562329
36 1 0.313014 0.811644 0.686986
26 1 0.686986 0.811644 0.562329
45 1 0.562329 0.811644 0.686986
54 1 0.811644 0.811644 0.686986
57 1 0.313014 0.188356 0.811644
66 1 0.562329 0.188356 0.811644
75 1 0.811644 0.188356 0.811644
3 1 0.188356 0.313014 0.811644
12 1 0.437671 0.313014 0.811644
60 1 0.313014 0.437671 0.811644
21 1 0.686986 0.313014 0.811644
69 1 0.562329 0.437671 0.811644
78 1 0.811644 0.437671 0.811644
6 1 0.188356 0.562329 0.811644
15 1 0.437671 0.562329 0.811644
63 1 0.313014 0.686986 0.811644
24 1 0.686986 0.562329 0.811644
72 1 0.562329 0.686986 0.811644
81 1 0.811644 0.686986 0.811644
9 1 0.188356 0.811644 0.811644
18 1 0.437671 0.811644 0.811644
27 1 0.686986 0.811644 0.811644
ITEM: TIMESTEP
100
ITEM: NUMBER OF ATOMS
108
ITEM: BOX BOUNDS pp pp pp
-2.7500000000000000e+00 1.1850000000000000e+01
-2.7500000000000000e+00 1.1850000000000000e+01
-2.7500000000000000e+00 1.1850000000000000e+01
ITEM: ATOMS id type xs ys zs
82 2 0.262192 0.262192 0.262192
91 2 0.43342 0.186622 0.186622
100 2 0.632949 0.181324 0.181324
85 2 0.186622 0.43342 0.186622
28 1 0.366229 0.366229 0.155693
94 2 0.489834 0.489834 0.0845771
37 1 0.52983 0.334996 0.169864
103 2 0.675987 0.437148 0.161204
46 1 0.767919 0.28924 0.173314
88 2 0.181324 0.632949 0.181324
31 1 0.334996 0.52983 0.169864
97 2 0.437148 0.675987 0.161204
40 1 0.578175 0.578175 0.213511
106 2 0.706494 0.706494 0.21032
49 1 0.804854 0.553837 0.181983
34 1 0.28924 0.767919 0.173314
43 1 0.553837 0.804854 0.181983
52 1 0.806479 0.806479 0.316455
83 2 0.186622 0.186622 0.43342
55 1 0.366229 0.155693 0.366229
92 2 0.489834 0.0845771 0.489834
64 1 0.52983 0.169864 0.334996
101 2 0.675987 0.161204 0.437148
73 1 0.767919 0.173314 0.28924
1 1 0.155693 0.366229 0.366229
86 2 0.0845771 0.489834 0.489834
10 1 0.436566 0.312477 0.312477
29 1 0.312477 0.312477 0.436566
58 1 0.312477 0.436566 0.312477
95 2 0.44089 0.44089 0.44089
19 1 0.668176 0.303649 0.303649
38 1 0.564645 0.310361 0.4397
67 1 0.564645 0.4397 0.310361
104 2 0.706493 0.433016 0.433016
47 1 0.801234 0.282306 0.409331
76 1 0.801234 0.409331 0.282306
4 1 0.169864 0.52983 0.334996
89 2 0.161204 0.675987 0.437148
13 1 0.4397 0.564645 0.310361
32 1 0.310361 0.564645 0.4397
61 1 0.303649 0.668176 0.303649
98 2 0.433016 0.706493 0.433016
22 1 0.709439 0.552113 0.308917
41 1 0.570015 0.570015 0.43519
70 1 0.552113 0.709439 0.308917
107 2 0.706974 0.706974 0.424957
50 1 0.822516 0.568306 0.449199
79 1 0.841074 0.651847 0.307611
7 1 0.173314 0.767919 0.28924
16 1 0.409331 0.801234 0.282306
35 1 0.282306 0.801234 0.409331
25 1 0.651847 0.841074 0.307611
44 1 0.568306 0.822516 0.449199
53 1 0.823762 0.823762 0.472979
84 2 0.181324 0.181324 0.632949
56 1 0.334996 0.169864 0.52983
93 2 0.437148 0.161204 0.675987
65 1 0.578175 0.213511 0.578175
102 2 0.706494 0.21032 0.706494
74 1 0.804854 0.181983 0.553837
2 1 0.169864 0.334996 0.52983
87 2 0.161204 0.437148 0.675987
11 1 0.4397 0.310361 0.564645
30 1 0.303649 0.303649 0.668176
59 1 0.310361 0.4397 0.564645
96 2 0.433016 0.433016 0.706493
20 1 0.709439 0.308917 0.552113
39 1 0.552113 0.308917 0.709439
68 1 0.570015 0.43519 0.570015
105 2 0.706974 0.424957 0.706974
48 1 0.841074 0.307611 0.651847
77 1 0.822516 0.449199 0.568306
5 1 0.213511 0.578175 0.578175
90 2 0.21032 0.706494 0.706494
14 1 0.43519 0.570015 0.570015
33 1 0.308917 0.552113 0.709439
62 1 0.308917 0.709439 0.552113
99 2 0.424957 0.706974 0.706974
23 1 0.696808 0.562669 0.562669
42 1 0.562669 0.562669 0.696808
71 1 0.562669 0.696808 0.562669
108 2 0.689494 0.689494 0.689494
51 1 0.816943 0.567455 0.694458
80 1 0.816943 0.694458 0.567455
8 1 0.181983 0.804854 0.553837
17 1 0.449199 0.822516 0.568306
36 1 0.307611 0.841074 0.651847
26 1 0.694458 0.816943 0.567455
45 1 0.567455 0.816943 0.694458
54 1 0.807989 0.807989 0.692659
57 1 0.28924 0.173314 0.767919
66 1 0.553837 0.181983 0.804854
75 1 0.806479 0.316455 0.806479
3 1 0.173314 0.28924 0.767919
12 1 0.409331 0.282306 0.801234
60 1 0.282306 0.409331 0.801234
21 1 0.651847 0.307611 0.841074
69 1 0.568306 0.449199 0.822516
78 1 0.823762 0.472979 0.823762
6 1 0.181983 0.553837 0.804854
15 1 0.449199 0.568306 0.822516
63 1 0.307611 0.651847 0.841074
24 1 0.694458 0.567455 0.816943
72 1 0.567455 0.694458 0.816943
81 1 0.807989 0.692659 0.807989
9 1 0.316455 0.806479 0.806479
18 1 0.472979 0.823762 0.823762
27 1 0.692659 0.807989 0.807989
ITEM: TIMESTEP
105
ITEM: NUMBER OF ATOMS
108
ITEM: BOX BOUNDS pp pp pp
-2.7500000000000000e+00 1.1850000000000000e+01
-2.7500000000000000e+00 1.1850000000000000e+01
-2.7500000000000000e+00 1.1850000000000000e+01
ITEM: ATOMS id type xs ys zs
82 2 0.262192 0.262192 0.262192
91 2 0.43342 0.186622 0.186622
100 2 0.632949 0.181324 0.181324
85 2 0.186622 0.43342 0.186622
28 1 0.366229 0.366229 0.155693
94 2 0.489834 0.489834 0.0845771
37 1 0.52983 0.334996 0.169864
103 2 0.675987 0.437148 0.161204
46 1 0.767919 0.28924 0.173314
88 2 0.181324 0.632949 0.181324
31 1 0.334996 0.52983 0.169864
97 2 0.437148 0.675987 0.161204
40 1 0.578175 0.578175 0.213511
106 2 0.706494 0.706494 0.21032
49 1 0.804854 0.553837 0.181983
34 1 0.28924 0.767919 0.173314
43 1 0.553837 0.804854 0.181983
52 1 0.806479 0.806479 0.316455
83 2 0.186622 0.186622 0.43342
55 1 0.366229 0.155693 0.366229
92 2 0.489834 0.0845771 0.489834
64 1 0.52983 0.169864 0.334996
101 2 0.675987 0.161204 0.437148
73 1 0.767919 0.173314 0.28924
1 1 0.155693 0.366229 0.366229
86 2 0.0845771 0.489834 0.489834
10 1 0.436566 0.312477 0.312477
29 1 0.312477 0.312477 0.436566
58 1 0.312477 0.436566 0.312477
95 2 0.44089 0.44089 0.44089
19 1 0.668176 0.303649 0.303649
38 1 0.564645 0.310361 0.4397
67 1 0.564645 0.4397 0.310361
104 2 0.706493 0.433016 0.433016
47 1 0.801234 0.282306 0.409331
76 1 0.801234 0.409331 0.282306
4 1 0.169864 0.52983 0.334996
89 2 0.161204 0.675987 0.437148
13 1 0.4397 0.564645 0.310361
32 1 0.310361 0.564645 0.4397
61 1 0.303649 0.668176 0.303649
98 2 0.433016 0.706493 0.433016
22 1 0.709439 0.552113 0.308917
41 1 0.570015 0.570015 0.43519
70 1 0.552113 0.709439 0.308917
107 2 0.706974 0.706974 0.424957
50 1 0.822516 0.568306 0.449199
79 1 0.841074 0.651847 0.307611
7 1 0.173314 0.767919 0.28924
16 1 0.409331 0.801234 0.282306
35 1 0.282306 0.801234 0.409331
25 1 0.651847 0.841074 0.307611
44 1 0.568306 0.822516 0.449199
53 1 0.823762 0.823762 0.472979
84 2 0.181324 0.181324 0.632949
56 1 0.334996 0.169864 0.52983
93 2 0.437148 0.161204 0.675987
65 1 0.578175 0.213511 0.578175
102 2 0.706494 0.21032 0.706494
74 1 0.804854 0.181983 0.553837
2 1 0.169864 0.334996 0.52983
87 2 0.161204 0.437148 0.675987
11 1 0.4397 0.310361 0.564645
30 1 0.303649 0.303649 0.668176
59 1 0.310361 0.4397 0.564645
96 2 0.433016 0.433016 0.706493
20 1 0.709439 0.308917 0.552113
39 1 0.552113 0.308917 0.709439
68 1 0.570015 0.43519 0.570015
105 2 0.706974 0.424957 0.706974
48 1 0.841074 0.307611 0.651847
77 1 0.822516 0.449199 0.568306
5 1 0.213511 0.578175 0.578175
90 2 0.21032 0.706494 0.706494
14 1 0.43519 0.570015 0.570015
33 1 0.308917 0.552113 0.709439
62 1 0.308917 0.709439 0.552113
99 2 0.424957 0.706974 0.706974
23 1 0.696808 0.562669 0.562669
42 1 0.562669 0.562669 0.696808
71 1 0.562669 0.696808 0.562669
108 2 0.689494 0.689494 0.689494
51 1 0.816943 0.567455 0.694458
80 1 0.816943 0.694458 0.567455
8 1 0.181983 0.804854 0.553837
17 1 0.449199 0.822516 0.568306
36 1 0.307611 0.841074 0.651847
26 1 0.694458 0.816943 0.567455
45 1 0.567455 0.816943 0.694458
54 1 0.807989 0.807989 0.692659
57 1 0.28924 0.173314 0.767919
66 1 0.553837 0.181983 0.804854
75 1 0.806479 0.316455 0.806479
3 1 0.173314 0.28924 0.767919
12 1 0.409331 0.282306 0.801234
60 1 0.282306 0.409331 0.801234
21 1 0.651847 0.307611 0.841074
69 1 0.568306 0.449199 0.822516
78 1 0.823762 0.472979 0.823762
6 1 0.181983 0.553837 0.804854
15 1 0.449199 0.568306 0.822516
63 1 0.307611 0.651847 0.841074
24 1 0.694458 0.567455 0.816943
72 1 0.567455 0.694458 0.816943
81 1 0.807989 0.692659 0.807989
9 1 0.316455 0.806479 0.806479
18 1 0.472979 0.823762 0.823762
27 1 0.692659 0.807989 0.807989
