ITEM: TIMESTEP
0
ITEM: NUMBER OF ATOMS
1536
ITEM: BOX BOUNDS pp pp pp
-4.2101000000000000e-01 1.8678989999999999e+01
-4.2101000000000000e-01 1.8678989999999999e+01
-7.2850000000000004e-01 6.1271500000000003e+01
ITEM: ATOMS id type xs ys zs
1 2 0.0220424 0.0220424 0.03525
449 2 0.188185 0.105114 0.0507
513 1 0.105114 0.188185 0.043035
1153 1 0.14665 0.0220424 0.01175
1281 1 0.0220424 0.14665 0.01175
1409 1 0.14665 0.14665 0.01175
17 2 0.271257 0.0220424 0.03525
529 1 0.354329 0.188185 0.043035
1169 1 0.395864 0.0220424 0.01175
1297 1 0.271257 0.14665 0.01175
1425 1 0.395864 0.14665 0.01175
33 2 0.520472 0.0220424 0.03525
465 2 0.4374 0.105114 0.0507
1313 1 0.520472 0.14665 0.01175
49 2 0.769686 0.0220424 0.03525
481 2 0.686615 0.105114 0.0507
545 1 0.603543 0.188185 0.043035
1185 1 0.645079 0.0220424 0.01175
1329 1 0.769686 0.14665 0.01175
1441 1 0.645079 0.14665 0.01175
497 2 0.935829 0.105114 0.0507
561 1 0.852758 0.188185 0.043035
1201 1 0.894294 0.0220424 0.01175
1457 1 0.894294 0.14665 0.01175
5 2 0.0220424 0.271257 0.03525
453 2 0.188185 0.354329 0.0507
1157 1 0.14665 0.271257 0.01175
1285 1 0.0220424 0.395864 0.01175
1413 1 0.14665 0.395864 0.01175
21 2 0.271257 0.271257 0.03525
1173 1 0.395864 0.271257 0.01175
1301 1 0.271257 0.395864 0.01175
1429 1 0.395864 0.395864 0.01175
37 2 0.520472 0.271257 0.03525
469 2 0.4374 0.354329 0.0507
1317 1 0.520472 0.395864 0.01175
53 2 0.769686 0.271257 0.03525
485 2 0.686615 0.354329 0.0507
1189 1 0.645079 0.271257 0.01175
1333 1 0.769686 0.395864 0.01175
1445 1 0.645079 0.395864 0.01175
501 2 0.935829 0.354329 0.0507
1205 1 0.894294 0.271257 0.01175
1461 1 0.894294 0.395864 0.01175
9 2 0.0220424 0.520472 0.03525
517 1 0.105114 0.4374 0.043035
1161 1 0.14665 0.520472 0.01175
25 2 0.271257 0.520472 0.03525
533 1 0.354329 0.4374 0.043035
1177 1 0.395864 0.520472 0.01175
41 2 0.520472 0.520472 0.03525
57 2 0.769686 0.520472 0.03525
549 1 0.603543 0.4374 0.043035
1193 1 0.645079 0.520472 0.01175
565 1 0.852758 0.4374 0.043035
1209 1 0.894294 0.520472 0.01175
13 2 0.0220424 0.769686 0.03525
457 2 0.188185 0.603543 0.0507
521 1 0.105114 0.686615 0.043035
1165 1 0.14665 0.769686 0.01175
1289 1 0.0220424 0.645079 0.01175
1417 1 0.14665 0.645079 0.01175
29 2 0.271257 0.769686 0.03525
537 1 0.354329 0.686615 0.043035
1181 1 0.395864 0.769686 0.01175
1305 1 0.271257 0.645079 0.01175
1433 1 0.395864 0.645079 0.01175
45 2 0.520472 0.769686 0.03525
473 2 0.4374 0.603543 0.0507
1321 1 0.520472 0.645079 0.01175
61 2 0.769686 0.769686 0.03525
489 2 0.686615 0.603543 0.0507
553 1 0.603543 0.686615 0.043035
1197 1 0.645079 0.769686 0.01175
1337 1 0.769686 0.645079 0.01175
1449 1 0.645079 0.645079 0.01175
505 2 0.935829 0.603543 0.0507
569 1 0.852758 0.686615 0.043035
1213 1 0.894294 0.769686 0.01175
1465 1 0.894294 0.645079 0.01175
461 2 0.188185 0.852758 0.0507
525 1 0.105114 0.935829 0.043035
1293 1 0.0220424 0.894294 0.01175
1421 1 0.14665 0.894294 0.01175
541 1 0.354329 0.935829 0.043035
1309 1 0.271257 0.894294 0.01175
1437 1 0.395864 0.894294 0.01175
477 2 0.4374 0.852758 0.0507
1325 1 0.520472 0.894294 0.01175
493 2 0.686615 0.852758 0.0507
557 1 0.603543 0.935829 0.043035
1341 1 0.769686 0.894294 0.01175
1453 1 0.645079 0.894294 0.01175
509 2 0.935829 0.852758 0.0507
573 1 0.852758 0.935829 0.043035
1469 1 0.894294 0.894294 0.01175
129 2 0.0220424 0.0220424 0.11325
321 2 0.188185 0.105114 0.0978
641 1 0.105114 0.188185 0.105465
769 1 0.0629859 0.103929 0.07425
145 2 0.271257 0.0220424 0.11325
657 1 0.354329 0.188185 0.105465
785 1 0.312201 0.103929 0.07425
161 2 0.520472 0.0220424 0.11325
337 2 0.4374 0.105114 0.0978
801 1 0.561415 0.103929 0.07425
177 2 0.769686 0.0220424 0.11325
353 2 0.686615 0.105114 0.0978
673 1 0.603543 0.188185 0.105465
369 2 0.935829 0.105114 0.0978
689 1 0.852758 0.188185 0.105465
817 1 0.81063 0.103929 0.07425
133 2 0.0220424 0.271257 0.11325
325 2 0.188185 0.354329 0.0978
773 1 0.0629859 0.353144 0.07425
897 1 0.18937 0.230314 0.07425
1025 1 0.0629859 0.230314 0.07425
149 2 0.271257 0.271257 0.11325
789 1 0.312201 0.353144 0.07425
1041 1 0.312201 0.230314 0.07425
165 2 0.520472 0.271257 0.11325
341 2 0.4374 0.354329 0.0978
805 1 0.561415 0.353144 0.07425
913 1 0.438585 0.230314 0.07425
1057 1 0.561415 0.230314 0.07425
181 2 0.769686 0.271257 0.11325
357 2 0.686615 0.354329 0.0978
929 1 0.687799 0.230314 0.07425
373 2 0.935829 0.354329 0.0978
821 1 0.81063 0.353144 0.07425
945 1 0.937014 0.230314 0.07425
1073 1 0.81063 0.230314 0.07425
137 2 0.0220424 0.520472 0.11325
645 1 0.105114 0.4374 0.105465
901 1 0.18937 0.479528 0.07425
1029 1 0.0629859 0.479528 0.07425
153 2 0.271257 0.520472 0.11325
661 1 0.354329 0.4374 0.105465
1045 1 0.312201 0.479528 0.07425
169 2 0.520472 0.520472 0.11325
917 1 0.438585 0.479528 0.07425
1061 1 0.561415 0.479528 0.07425
185 2 0.769686 0.520472 0.11325
677 1 0.603543 0.4374 0.105465
933 1 0.687799 0.479528 0.07425
693 1 0.852758 0.4374 0.105465
949 1 0.937014 0.479528 0.07425
1077 1 0.81063 0.479528 0.07425
141 2 0.0220424 0.769686 0.11325
329 2 0.188185 0.603543 0.0978
649 1 0.105114 0.686615 0.105465
777 1 0.0629859 0.602359 0.07425
905 1 0.18937 0.728743 0.07425
1033 1 0.0629859 0.728743 0.07425
157 2 0.271257 0.769686 0.11325
665 1 0.354329 0.686615 0.105465
793 1 0.312201 0.602359 0.07425
1049 1 0.312201 0.728743 0.07425
173 2 0.520472 0.769686 0.11325
345 2 0.4374 0.603543 0.0978
809 1 0.561415 0.602359 0.07425
921 1 0.438585 0.728743 0.07425
1065 1 0.561415 0.728743 0.07425
189 2 0.769686 0.769686 0.11325
361 2 0.686615 0.603543 0.0978
681 1 0.603543 0.686615 0.105465
937 1 0.687799 0.728743 0.07425
377 2 0.935829 0.603543 0.0978
697 1 0.852758 0.686615 0.105465
825 1 0.81063 0.602359 0.07425
953 1 0.937014 0.728743 0.07425
1081 1 0.81063 0.728743 0.07425
333 2 0.188185 0.852758 0.0978
653 1 0.105114 0.935829 0.105465
781 1 0.0629859 0.851573 0.07425
909 1 0.18937 0.977958 0.07425
1037 1 0.0629859 0.977958 0.07425
669 1 0.354329 0.935829 0.105465
797 1 0.312201 0.851573 0.07425
1053 1 0.312201 0.977958 0.07425
349 2 0.4374 0.852758 0.0978
813 1 0.561415 0.851573 0.07425
925 1 0.438585 0.977958 0.07425
1069 1 0.561415 0.977958 0.07425
365 2 0.686615 0.852758 0.0978
685 1 0.603543 0.935829 0.105465
941 1 0.687799 0.977958 0.07425
381 2 0.935829 0.852758 0.0978
701 1 0.852758 0.935829 0.105465
829 1 0.81063 0.851573 0.07425
957 1 0.937014 0.977958 0.07425
1085 1 0.81063 0.977958 0.07425
65 2 0.0220424 0.0220424 0.16025
385 2 0.105114 0.188185 0.1757
577 1 0.188185 0.105114 0.168035
1217 1 0.14665 0.14665 0.13675
1345 1 0.14665 0.0220424 0.13675
1473 1 0.0220424 0.14665 0.13675
81 2 0.271257 0.0220424 0.16025
401 2 0.354329 0.188185 0.1757
1233 1 0.395864 0.14665 0.13675
1361 1 0.395864 0.0220424 0.13675
1489 1 0.271257 0.14665 0.13675
97 2 0.520472 0.0220424 0.16025
593 1 0.4374 0.105114 0.168035
1505 1 0.520472 0.14665 0.13675
113 2 0.769686 0.0220424 0.16025
417 2 0.603543 0.188185 0.1757
609 1 0.686615 0.105114 0.168035
1249 1 0.645079 0.14665 0.13675
1377 1 0.645079 0.0220424 0.13675
1521 1 0.769686 0.14665 0.13675
433 2 0.852758 0.188185 0.1757
625 1 0.935829 0.105114 0.168035
1265 1 0.894294 0.14665 0.13675
1393 1 0.894294 0.0220424 0.13675
69 2 0.0220424 0.271257 0.16025
581 1 0.188185 0.354329 0.168035
1221 1 0.14665 0.395864 0.13675
1349 1 0.14665 0.271257 0.13675
1477 1 0.0220424 0.395864 0.13675
85 2 0.271257 0.271257 0.16025
1237 1 0.395864 0.395864 0.13675
1365 1 0.395864 0.271257 0.13675
1493 1 0.271257 0.395864 0.13675
101 2 0.520472 0.271257 0.16025
597 1 0.4374 0.354329 0.168035
1509 1 0.520472 0.395864 0.13675
117 2 0.769686 0.271257 0.16025
613 1 0.686615 0.354329 0.168035
1253 1 0.645079 0.395864 0.13675
1381 1 0.645079 0.271257 0.13675
1525 1 0.769686 0.395864 0.13675
629 1 0.935829 0.354329 0.168035
1269 1 0.894294 0.395864 0.13675
1397 1 0.894294 0.271257 0.13675
73 2 0.0220424 0.520472 0.16025
389 2 0.105114 0.4374 0.1757
1353 1 0.14665 0.520472 0.13675
89 2 0.271257 0.520472 0.16025
405 2 0.354329 0.4374 0.1757
1369 1 0.395864 0.520472 0.13675
105 2 0.520472 0.520472 0.16025
121 2 0.769686 0.520472 0.16025
421 2 0.603543 0.4374 0.1757
1385 1 0.645079 0.520472 0.13675
437 2 0.852758 0.4374 0.1757
1401 1 0.894294 0.520472 0.13675
77 2 0.0220424 0.769686 0.16025
393 2 0.105114 0.686615 0.1757
585 1 0.188185 0.603543 0.168035
1225 1 0.14665 0.645079 0.13675
1357 1 0.14665 0.769686 0.13675
1481 1 0.0220424 0.645079 0.13675
93 2 0.271257 0.769686 0.16025
409 2 0.354329 0.686615 0.1757
1241 1 0.395864 0.645079 0.13675
1373 1 0.395864 0.769686 0.13675
1497 1 0.271257 0.645079 0.13675
109 2 0.520472 0.769686 0.16025
601 1 0.4374 0.603543 0.168035
1513 1 0.520472 0.645079 0.13675
125 2 0.769686 0.769686 0.16025
425 2 0.603543 0.686615 0.1757
617 1 0.686615 0.603543 0.168035
1257 1 0.645079 0.645079 0.13675
1389 1 0.645079 0.769686 0.13675
1529 1 0.769686 0.645079 0.13675
441 2 0.852758 0.686615 0.1757
633 1 0.935829 0.603543 0.168035
1273 1 0.894294 0.645079 0.13675
1405 1 0.894294 0.769686 0.13675
397 2 0.105114 0.935829 0.1757
589 1 0.188185 0.852758 0.168035
1229 1 0.14665 0.894294 0.13675
1485 1 0.0220424 0.894294 0.13675
413 2 0.354329 0.935829 0.1757
1245 1 0.395864 0.894294 0.13675
1501 1 0.271257 0.894294 0.13675
605 1 0.4374 0.852758 0.168035
1517 1 0.520472 0.894294 0.13675
429 2 0.603543 0.935829 0.1757
621 1 0.686615 0.852758 0.168035
1261 1 0.645079 0.894294 0.13675
1533 1 0.769686 0.894294 0.13675
445 2 0.852758 0.935829 0.1757
637 1 0.935829 0.852758 0.168035
1277 1 0.894294 0.894294 0.13675
257 2 0.105114 0.188185 0.2228
705 1 0.188185 0.105114 0.230465
1089 1 0.103929 0.0629859 0.19925
273 2 0.354329 0.188185 0.2228
833 1 0.230314 0.0629859 0.19925
961 1 0.230314 0.18937 0.19925
1105 1 0.353144 0.0629859 0.19925
721 1 0.4374 0.105114 0.230465
849 1 0.479528 0.0629859 0.19925
977 1 0.479528 0.18937 0.19925
289 2 0.603543 0.188185 0.2228
737 1 0.686615 0.105114 0.230465
865 1 0.728743 0.0629859 0.19925
993 1 0.728743 0.18937 0.19925
1121 1 0.602359 0.0629859 0.19925
305 2 0.852758 0.188185 0.2228
753 1 0.935829 0.105114 0.230465
881 1 0.977958 0.0629859 0.19925
1009 1 0.977958 0.18937 0.19925
1137 1 0.851573 0.0629859 0.19925
709 1 0.188185 0.354329 0.230465
1093 1 0.103929 0.312201 0.19925
837 1 0.230314 0.312201 0.19925
1109 1 0.353144 0.312201 0.19925
725 1 0.4374 0.354329 0.230465
853 1 0.479528 0.312201 0.19925
741 1 0.686615 0.354329 0.230465
869 1 0.728743 0.312201 0.19925
1125 1 0.602359 0.312201 0.19925
757 1 0.935829 0.354329 0.230465
885 1 0.977958 0.312201 0.19925
1141 1 0.851573 0.312201 0.19925
261 2 0.105114 0.4374 0.2228
1097 1 0.103929 0.561415 0.19925
277 2 0.354329 0.4374 0.2228
841 1 0.230314 0.561415 0.19925
965 1 0.230314 0.438585 0.19925
1113 1 0.353144 0.561415 0.19925
857 1 0.479528 0.561415 0.19925
981 1 0.479528 0.438585 0.19925
293 2 0.603543 0.4374 0.2228
873 1 0.728743 0.561415 0.19925
997 1 0.728743 0.438585 0.19925
1129 1 0.602359 0.561415 0.19925
309 2 0.852758 0.4374 0.2228
889 1 0.977958 0.561415 0.19925
1013 1 0.977958 0.438585 0.19925
1145 1 0.851573 0.561415 0.19925
265 2 0.105114 0.686615 0.2228
713 1 0.188185 0.603543 0.230465
281 2 0.354329 0.686615 0.2228
969 1 0.230314 0.687799 0.19925
729 1 0.4374 0.603543 0.230465
985 1 0.479528 0.687799 0.19925
297 2 0.603543 0.686615 0.2228
745 1 0.686615 0.603543 0.230465
1001 1 0.728743 0.687799 0.19925
313 2 0.852758 0.686615 0.2228
761 1 0.935829 0.603543 0.230465
1017 1 0.977958 0.687799 0.19925
269 2 0.105114 0.935829 0.2228
717 1 0.188185 0.852758 0.230465
1101 1 0.103929 0.81063 0.19925
285 2 0.354329 0.935829 0.2228
845 1 0.230314 0.81063 0.19925
973 1 0.230314 0.937014 0.19925
1117 1 0.353144 0.81063 0.19925
733 1 0.4374 0.852758 0.230465
861 1 0.479528 0.81063 0.19925
989 1 0.479528 0.937014 0.19925
301 2 0.603543 0.935829 0.2228
749 1 0.686615 0.852758 0.230465
877 1 0.728743 0.81063 0.19925
1005 1 0.728743 0.937014 0.19925
1133 1 0.602359 0.81063 0.19925
317 2 0.852758 0.935829 0.2228
765 1 0.935829 0.852758 0.230465
893 1 0.977958 0.81063 0.19925
1021 1 0.977958 0.937014 0.19925
1149 1 0.851573 0.81063 0.19925
2 2 0.0220424 0.0220424 0.28525
193 2 0.0220424 0.0220424 0.23825
514 1 0.105114 0.188185 0.293035
1154 1 0.14665 0.0220424 0.26175
1282 1 0.0220424 0.14665 0.26175
1410 1 0.14665 0.14665 0.26175
18 2 0.271257 0.0220424 0.28525
209 2 0.271257 0.0220424 0.23825
530 1 0.354329 0.188185 0.293035
1170 1 0.395864 0.0220424 0.26175
1298 1 0.271257 0.14665 0.26175
1426 1 0.395864 0.14665 0.26175
34 2 0.520472 0.0220424 0.28525
225 2 0.520472 0.0220424 0.23825
1314 1 0.520472 0.14665 0.26175
50 2 0.769686 0.0220424 0.28525
241 2 0.769686 0.0220424 0.23825
546 1 0.603543 0.188185 0.293035
1186 1 0.645079 0.0220424 0.26175
1330 1 0.769686 0.14665 0.26175
1442 1 0.645079 0.14665 0.26175
562 1 0.852758 0.188185 0.293035
1202 1 0.894294 0.0220424 0.26175
1458 1 0.894294 0.14665 0.26175
6 2 0.0220424 0.271257 0.28525
197 2 0.0220424 0.271257 0.23825
1158 1 0.14665 0.271257 0.26175
1286 1 0.0220424 0.395864 0.26175
1414 1 0.14665 0.395864 0.26175
22 2 0.271257 0.271257 0.28525
213 2 0.271257 0.271257 0.23825
1174 1 0.395864 0.271257 0.26175
1302 1 0.271257 0.395864 0.26175
1430 1 0.395864 0.395864 0.26175
38 2 0.520472 0.271257 0.28525
229 2 0.520472 0.271257 0.23825
1318 1 0.520472 0.395864 0.26175
54 2 0.769686 0.271257 0.28525
245 2 0.769686 0.271257 0.23825
1190 1 0.645079 0.271257 0.26175
1334 1 0.769686 0.395864 0.26175
1446 1 0.645079 0.395864 0.26175
1206 1 0.894294 0.271257 0.26175
1462 1 0.894294 0.395864 0.26175
10 2 0.0220424 0.520472 0.28525
201 2 0.0220424 0.520472 0.23825
518 1 0.105114 0.4374 0.293035
1162 1 0.14665 0.520472 0.26175
26 2 0.271257 0.520472 0.28525
217 2 0.271257 0.520472 0.23825
534 1 0.354329 0.4374 0.293035
1178 1 0.395864 0.520472 0.26175
42 2 0.520472 0.520472 0.28525
233 2 0.520472 0.520472 0.23825
58 2 0.769686 0.520472 0.28525
249 2 0.769686 0.520472 0.23825
550 1 0.603543 0.4374 0.293035
1194 1 0.645079 0.520472 0.26175
566 1 0.852758 0.4374 0.293035
1210 1 0.894294 0.520472 0.26175
14 2 0.0220424 0.769686 0.28525
205 2 0.0220424 0.769686 0.23825
522 1 0.105114 0.686615 0.293035
1166 1 0.14665 0.769686 0.26175
1290 1 0.0220424 0.645079 0.26175
1418 1 0.14665 0.645079 0.26175
30 2 0.271257 0.769686 0.28525
221 2 0.271257 0.769686 0.23825
538 1 0.354329 0.686615 0.293035
1182 1 0.395864 0.769686 0.26175
1306 1 0.271257 0.645079 0.26175
1434 1 0.395864 0.645079 0.26175
46 2 0.520472 0.769686 0.28525
237 2 0.520472 0.769686 0.23825
1322 1 0.520472 0.645079 0.26175
62 2 0.769686 0.769686 0.28525
253 2 0.769686 0.769686 0.23825
554 1 0.603543 0.686615 0.293035
1198 1 0.645079 0.769686 0.26175
1338 1 0.769686 0.645079 0.26175
1450 1 0.645079 0.645079 0.26175
570 1 0.852758 0.686615 0.293035
1214 1 0.894294 0.769686 0.26175
1466 1 0.894294 0.645079 0.26175
526 1 0.105114 0.935829 0.293035
1294 1 0.0220424 0.894294 0.26175
1422 1 0.14665 0.894294 0.26175
542 1 0.354329 0.935829 0.293035
1310 1 0.271257 0.894294 0.26175
1438 1 0.395864 0.894294 0.26175
1326 1 0.520472 0.894294 0.26175
558 1 0.603543 0.935829 0.293035
1342 1 0.769686 0.894294 0.26175
1454 1 0.645079 0.894294 0.26175
574 1 0.852758 0.935829 0.293035
1470 1 0.894294 0.894294 0.26175
322 2 0.188185 0.105114 0.3478
450 2 0.188185 0.105114 0.3007
770 1 0.0629859 0.103929 0.32425
786 1 0.312201 0.103929 0.32425
338 2 0.4374 0.105114 0.3478
466 2 0.4374 0.105114 0.3007
802 1 0.561415 0.103929 0.32425
354 2 0.686615 0.105114 0.3478
482 2 0.686615 0.105114 0.3007
370 2 0.935829 0.105114 0.3478
498 2 0.935829 0.105114 0.3007
818 1 0.81063 0.103929 0.32425
326 2 0.188185 0.354329 0.3478
454 2 0.188185 0.354329 0.3007
774 1 0.0629859 0.353144 0.32425
898 1 0.18937 0.230314 0.32425
1026 1 0.0629859 0.230314 0.32425
790 1 0.312201 0.353144 0.32425
1042 1 0.312201 0.230314 0.32425
342 2 0.4374 0.354329 0.3478
470 2 0.4374 0.354329 0.3007
806 1 0.561415 0.353144 0.32425
914 1 0.438585 0.230314 0.32425
1058 1 0.561415 0.230314 0.32425
358 2 0.686615 0.354329 0.3478
486 2 0.686615 0.354329 0.3007
930 1 0.687799 0.230314 0.32425
374 2 0.935829 0.354329 0.3478
502 2 0.935829 0.354329 0.3007
822 1 0.81063 0.353144 0.32425
946 1 0.937014 0.230314 0.32425
1074 1 0.81063 0.230314 0.32425
902 1 0.18937 0.479528 0.32425
1030 1 0.0629859 0.479528 0.32425
1046 1 0.312201 0.479528 0.32425
918 1 0.438585 0.479528 0.32425
1062 1 0.561415 0.479528 0.32425
934 1 0.687799 0.479528 0.32425
950 1 0.937014 0.479528 0.32425
1078 1 0.81063 0.479528 0.32425
330 2 0.188185 0.603543 0.3478
458 2 0.188185 0.603543 0.3007
778 1 0.0629859 0.602359 0.32425
906 1 0.18937 0.728743 0.32425
1034 1 0.0629859 0.728743 0.32425
794 1 0.312201 0.602359 0.32425
1050 1 0.312201 0.728743 0.32425
346 2 0.4374 0.603543 0.3478
474 2 0.4374 0.603543 0.3007
810 1 0.561415 0.602359 0.32425
922 1 0.438585 0.728743 0.32425
1066 1 0.561415 0.728743 0.32425
362 2 0.686615 0.603543 0.3478
490 2 0.686615 0.603543 0.3007
938 1 0.687799 0.728743 0.32425
378 2 0.935829 0.603543 0.3478
506 2 0.935829 0.603543 0.3007
826 1 0.81063 0.602359 0.32425
954 1 0.937014 0.728743 0.32425
1082 1 0.81063 0.728743 0.32425
334 2 0.188185 0.852758 0.3478
462 2 0.188185 0.852758 0.3007
782 1 0.0629859 0.851573 0.32425
910 1 0.18937 0.977958 0.32425
1038 1 0.0629859 0.977958 0.32425
798 1 0.312201 0.851573 0.32425
1054 1 0.312201 0.977958 0.32425
350 2 0.4374 0.852758 0.3478
478 2 0.4374 0.852758 0.3007
814 1 0.561415 0.851573 0.32425
926 1 0.438585 0.977958 0.32425
1070 1 0.561415 0.977958 0.32425
366 2 0.686615 0.852758 0.3478
494 2 0.686615 0.852758 0.3007
942 1 0.687799 0.977958 0.32425
382 2 0.935829 0.852758 0.3478
510 2 0.935829 0.852758 0.3007
830 1 0.81063 0.851573 0.32425
958 1 0.937014 0.977958 0.32425
1086 1 0.81063 0.977958 0.32425
66 2 0.0220424 0.0220424 0.41025
130 2 0.0220424 0.0220424 0.36325
642 1 0.105114 0.188185 0.355465
1218 1 0.14665 0.14665 0.38675
1346 1 0.14665 0.0220424 0.38675
1474 1 0.0220424 0.14665 0.38675
82 2 0.271257 0.0220424 0.41025
146 2 0.271257 0.0220424 0.36325
658 1 0.354329 0.188185 0.355465
1234 1 0.395864 0.14665 0.38675
1362 1 0.395864 0.0220424 0.38675
1490 1 0.271257 0.14665 0.38675
98 2 0.520472 0.0220424 0.41025
162 2 0.520472 0.0220424 0.36325
1506 1 0.520472 0.14665 0.38675
114 2 0.769686 0.0220424 0.41025
178 2 0.769686 0.0220424 0.36325
674 1 0.603543 0.188185 0.355465
1250 1 0.645079 0.14665 0.38675
1378 1 0.645079 0.0220424 0.38675
1522 1 0.769686 0.14665 0.38675
690 1 0.852758 0.188185 0.355465
1266 1 0.894294 0.14665 0.38675
1394 1 0.894294 0.0220424 0.38675
70 2 0.0220424 0.271257 0.41025
134 2 0.0220424 0.271257 0.36325
1222 1 0.14665 0.395864 0.38675
1350 1 0.14665 0.271257 0.38675
1478 1 0.0220424 0.395864 0.38675
86 2 0.271257 0.271257 0.41025
150 2 0.271257 0.271257 0.36325
1238 1 0.395864 0.395864 0.38675
1366 1 0.395864 0.271257 0.38675
1494 1 0.271257 0.395864 0.38675
102 2 0.520472 0.271257 0.41025
166 2 0.520472 0.271257 0.36325
1510 1 0.520472 0.395864 0.38675
118 2 0.769686 0.271257 0.41025
182 2 0.769686 0.271257 0.36325
1254 1 0.645079 0.395864 0.38675
1382 1 0.645079 0.271257 0.38675
1526 1 0.769686 0.395864 0.38675
1270 1 0.894294 0.395864 0.38675
1398 1 0.894294 0.271257 0.38675
74 2 0.0220424 0.520472 0.41025
138 2 0.0220424 0.520472 0.36325
646 1 0.105114 0.4374 0.355465
1354 1 0.14665 0.520472 0.38675
90 2 0.271257 0.520472 0.41025
154 2 0.271257 0.520472 0.36325
662 1 0.354329 0.4374 0.355465
1370 1 0.395864 0.520472 0.38675
106 2 0.520472 0.520472 0.41025
170 2 0.520472 0.520472 0.36325
122 2 0.769686 0.520472 0.41025
186 2 0.769686 0.520472 0.36325
678 1 0.603543 0.4374 0.355465
1386 1 0.645079 0.520472 0.38675
694 1 0.852758 0.4374 0.355465
1402 1 0.894294 0.520472 0.38675
78 2 0.0220424 0.769686 0.41025
142 2 0.0220424 0.769686 0.36325
650 1 0.105114 0.686615 0.355465
1226 1 0.14665 0.645079 0.38675
1358 1 0.14665 0.769686 0.38675
1482 1 0.0220424 0.645079 0.38675
94 2 0.271257 0.769686 0.41025
158 2 0.271257 0.769686 0.36325
666 1 0.354329 0.686615 0.355465
1242 1 0.395864 0.645079 0.38675
1374 1 0.395864 0.769686 0.38675
1498 1 0.271257 0.645079 0.38675
110 2 0.520472 0.769686 0.41025
174 2 0.520472 0.769686 0.36325
1514 1 0.520472 0.645079 0.38675
126 2 0.769686 0.769686 0.41025
190 2 0.769686 0.769686 0.36325
682 1 0.603543 0.686615 0.355465
1258 1 0.645079 0.645079 0.38675
1390 1 0.645079 0.769686 0.38675
1530 1 0.769686 0.645079 0.38675
698 1 0.852758 0.686615 0.355465
1274 1 0.894294 0.645079 0.38675
1406 1 0.894294 0.769686 0.38675
654 1 0.105114 0.935829 0.355465
1230 1 0.14665 0.894294 0.38675
1486 1 0.0220424 0.894294 0.38675
670 1 0.354329 0.935829 0.355465
1246 1 0.395864 0.894294 0.38675
1502 1 0.271257 0.894294 0.38675
1518 1 0.520472 0.894294 0.38675
686 1 0.603543 0.935829 0.355465
1262 1 0.645079 0.894294 0.38675
1534 1 0.769686 0.894294 0.38675
702 1 0.852758 0.935829 0.355465
1278 1 0.894294 0.894294 0.38675
386 2 0.105114 0.188185 0.4257
578 1 0.188185 0.105114 0.418035
1090 1 0.103929 0.0629859 0.44925
402 2 0.354329 0.188185 0.4257
834 1 0.230314 0.0629859 0.44925
962 1 0.230314 0.18937 0.44925
1106 1 0.353144 0.0629859 0.44925
594 1 0.4374 0.105114 0.418035
850 1 0.479528 0.0629859 0.44925
978 1 0.479528 0.18937 0.44925
418 2 0.603543 0.188185 0.4257
610 1 0.686615 0.105114 0.418035
866 1 0.728743 0.0629859 0.44925
994 1 0.728743 0.18937 0.44925
1122 1 0.602359 0.0629859 0.44925
434 2 0.852758 0.188185 0.4257
626 1 0.935829 0.105114 0.418035
882 1 0.977958 0.0629859 0.44925
1010 1 0.977958 0.18937 0.44925
1138 1 0.851573 0.0629859 0.44925
582 1 0.188185 0.354329 0.418035
1094 1 0.103929 0.312201 0.44925
838 1 0.230314 0.312201 0.44925
1110 1 0.353144 0.312201 0.44925
598 1 0.4374 0.354329 0.418035
854 1 0.479528 0.312201 0.44925
614 1 0.686615 0.354329 0.418035
870 1 0.728743 0.312201 0.44925
1126 1 0.602359 0.312201 0.44925
630 1 0.935829 0.354329 0.418035
886 1 0.977958 0.312201 0.44925
1142 1 0.851573 0.312201 0.44925
390 2 0.105114 0.4374 0.4257
1098 1 0.103929 0.561415 0.44925
406 2 0.354329 0.4374 0.4257
842 1 0.230314 0.561415 0.44925
966 1 0.230314 0.438585 0.44925
1114 1 0.353144 0.561415 0.44925
858 1 0.479528 0.561415 0.44925
982 1 0.479528 0.438585 0.44925
422 2 0.603543 0.4374 0.4257
874 1 0.728743 0.561415 0.44925
998 1 0.728743 0.438585 0.44925
1130 1 0.602359 0.561415 0.44925
438 2 0.852758 0.4374 0.4257
890 1 0.977958 0.561415 0.44925
1014 1 0.977958 0.438585 0.44925
1146 1 0.851573 0.561415 0.44925
394 2 0.105114 0.686615 0.4257
586 1 0.188185 0.603543 0.418035
410 2 0.354329 0.686615 0.4257
970 1 0.230314 0.687799 0.44925
602 1 0.4374 0.603543 0.418035
986 1 0.479528 0.687799 0.44925
426 2 0.603543 0.686615 0.4257
618 1 0.686615 0.603543 0.418035
1002 1 0.728743 0.687799 0.44925
442 2 0.852758 0.686615 0.4257
634 1 0.935829 0.603543 0.418035
1018 1 0.977958 0.687799 0.44925
398 2 0.105114 0.935829 0.4257
590 1 0.188185 0.852758 0.418035
1102 1 0.103929 0.81063 0.44925
414 2 0.354329 0.935829 0.4257
846 1 0.230314 0.81063 0.44925
974 1 0.230314 0.937014 0.44925
1118 1 0.353144 0.81063 0.44925
606 1 0.4374 0.852758 0.418035
862 1 0.479528 0.81063 0.44925
990 1 0.479528 0.937014 0.44925
430 2 0.603543 0.935829 0.4257
622 1 0.686615 0.852758 0.418035
878 1 0.728743 0.81063 0.44925
1006 1 0.728743 0.937014 0.44925
1134 1 0.602359 0.81063 0.44925
446 2 0.852758 0.935829 0.4257
638 1 0.935829 0.852758 0.418035
894 1 0.977958 0.81063 0.44925
1022 1 0.977958 0.937014 0.44925
1150 1 0.851573 0.81063 0.44925
194 2 0.0220424 0.0220424 0.48825
258 2 0.105114 0.188185 0.4728
706 1 0.188185 0.105114 0.480465
1155 1 0.14665 0.0220424 0.51175
1283 1 0.0220424 0.14665 0.51175
1411 1 0.14665 0.14665 0.51175
210 2 0.271257 0.0220424 0.48825
274 2 0.354329 0.188185 0.4728
1171 1 0.395864 0.0220424 0.51175
1299 1 0.271257 0.14665 0.51175
1427 1 0.395864 0.14665 0.51175
226 2 0.520472 0.0220424 0.48825
722 1 0.4374 0.105114 0.480465
1315 1 0.520472 0.14665 0.51175
242 2 0.769686 0.0220424 0.48825
290 2 0.603543 0.188185 0.4728
738 1 0.686615 0.105114 0.480465
1187 1 0.645079 0.0220424 0.51175
1331 1 0.769686 0.14665 0.51175
1443 1 0.645079 0.14665 0.51175
306 2 0.852758 0.188185 0.4728
754 1 0.935829 0.105114 0.480465
1203 1 0.894294 0.0220424 0.51175
1459 1 0.894294 0.14665 0.51175
198 2 0.0220424 0.271257 0.48825
710 1 0.188185 0.354329 0.480465
1159 1 0.14665 0.271257 0.51175
1287 1 0.0220424 0.395864 0.51175
1415 1 0.14665 0.395864 0.51175
214 2 0.271257 0.271257 0.48825
1175 1 0.395864 0.271257 0.51175
1303 1 0.271257 0.395864 0.51175
1431 1 0.395864 0.395864 0.51175
230 2 0.520472 0.271257 0.48825
726 1 0.4374 0.354329 0.480465
1319 1 0.520472 0.395864 0.51175
246 2 0.769686 0.271257 0.48825
742 1 0.686615 0.354329 0.480465
1191 1 0.645079 0.271257 0.51175
1335 1 0.769686 0.395864 0.51175
1447 1 0.645079 0.395864 0.51175
758 1 0.935829 0.354329 0.480465
1207 1 0.894294 0.271257 0.51175
1463 1 0.894294 0.395864 0.51175
202 2 0.0220424 0.520472 0.48825
262 2 0.105114 0.4374 0.4728
1163 1 0.14665 0.520472 0.51175
218 2 0.271257 0.520472 0.48825
278 2 0.354329 0.4374 0.4728
1179 1 0.395864 0.520472 0.51175
234 2 0.520472 0.520472 0.48825
250 2 0.769686 0.520472 0.48825
294 2 0.603543 0.4374 0.4728
1195 1 0.645079 0.520472 0.51175
310 2 0.852758 0.4374 0.4728
1211 1 0.894294 0.520472 0.51175
206 2 0.0220424 0.769686 0.48825
266 2 0.105114 0.686615 0.4728
714 1 0.188185 0.603543 0.480465
1167 1 0.14665 0.769686 0.51175
1291 1 0.0220424 0.645079 0.51175
1419 1 0.14665 0.645079 0.51175
222 2 0.271257 0.769686 0.48825
282 2 0.354329 0.686615 0.4728
1183 1 0.395864 0.769686 0.51175
1307 1 0.271257 0.645079 0.51175
1435 1 0.395864 0.645079 0.51175
238 2 0.520472 0.769686 0.48825
730 1 0.4374 0.603543 0.480465
1323 1 0.520472 0.645079 0.51175
254 2 0.769686 0.769686 0.48825
298 2 0.603543 0.686615 0.4728
746 1 0.686615 0.603543 0.480465
1199 1 0.645079 0.769686 0.51175
1339 1 0.769686 0.645079 0.51175
1451 1 0.645079 0.645079 0.51175
314 2 0.852758 0.686615 0.4728
762 1 0.935829 0.603543 0.480465
1215 1 0.894294 0.769686 0.51175
1467 1 0.894294 0.645079 0.51175
270 2 0.105114 0.935829 0.4728
718 1 0.188185 0.852758 0.480465
1295 1 0.0220424 0.894294 0.51175
1423 1 0.14665 0.894294 0.51175
286 2 0.354329 0.935829 0.4728
1311 1 0.271257 0.894294 0.51175
1439 1 0.395864 0.894294 0.51175
734 1 0.4374 0.852758 0.480465
1327 1 0.520472 0.894294 0.51175
302 2 0.603543 0.935829 0.4728
750 1 0.686615 0.852758 0.480465
1343 1 0.769686 0.894294 0.51175
1455 1 0.645079 0.894294 0.51175
318 2 0.852758 0.935829 0.4728
766 1 0.935829 0.852758 0.480465
1471 1 0.894294 0.894294 0.51175
3 2 0.0220424 0.0220424 0.53525
451 2 0.188185 0.105114 0.5507
515 1 0.105114 0.188185 0.543035
771 1 0.0629859 0.103929 0.57425
19 2 0.271257 0.0220424 0.53525
531 1 0.354329 0.188185 0.543035
787 1 0.312201 0.103929 0.57425
35 2 0.520472 0.0220424 0.53525
467 2 0.4374 0.105114 0.5507
803 1 0.561415 0.103929 0.57425
51 2 0.769686 0.0220424 0.53525
483 2 0.686615 0.105114 0.5507
547 1 0.603543 0.188185 0.543035
499 2 0.935829 0.105114 0.5507
563 1 0.852758 0.188185 0.543035
819 1 0.81063 0.103929 0.57425
7 2 0.0220424 0.271257 0.53525
455 2 0.188185 0.354329 0.5507
775 1 0.0629859 0.353144 0.57425
899 1 0.18937 0.230314 0.57425
1027 1 0.0629859 0.230314 0.57425
23 2 0.271257 0.271257 0.53525
791 1 0.312201 0.353144 0.57425
1043 1 0.312201 0.230314 0.57425
39 2 0.520472 0.271257 0.53525
471 2 0.4374 0.354329 0.5507
807 1 0.561415 0.353144 0.57425
915 1 0.438585 0.230314 0.57425
1059 1 0.561415 0.230314 0.57425
55 2 0.769686 0.271257 0.53525
487 2 0.686615 0.354329 0.5507
931 1 0.687799 0.230314 0.57425
503 2 0.935829 0.354329 0.5507
823 1 0.81063 0.353144 0.57425
947 1 0.937014 0.230314 0.57425
1075 1 0.81063 0.230314 0.57425
11 2 0.0220424 0.520472 0.53525
519 1 0.105114 0.4374 0.543035
903 1 0.18937 0.479528 0.57425
1031 1 0.0629859 0.479528 0.57425
27 2 0.271257 0.520472 0.53525
535 1 0.354329 0.4374 0.543035
1047 1 0.312201 0.479528 0.57425
43 2 0.520472 0.520472 0.53525
919 1 0.438585 0.479528 0.57425
1063 1 0.561415 0.479528 0.57425
59 2 0.769686 0.520472 0.53525
551 1 0.603543 0.4374 0.543035
935 1 0.687799 0.479528 0.57425
567 1 0.852758 0.4374 0.543035
951 1 0.937014 0.479528 0.57425
1079 1 0.81063 0.479528 0.57425
15 2 0.0220424 0.769686 0.53525
459 2 0.188185 0.603543 0.5507
523 1 0.105114 0.686615 0.543035
779 1 0.0629859 0.602359 0.57425
907 1 0.18937 0.728743 0.57425
1035 1 0.0629859 0.728743 0.57425
31 2 0.271257 0.769686 0.53525
539 1 0.354329 0.686615 0.543035
795 1 0.312201 0.602359 0.57425
1051 1 0.312201 0.728743 0.57425
47 2 0.520472 0.769686 0.53525
475 2 0.4374 0.603543 0.5507
811 1 0.561415 0.602359 0.57425
923 1 0.438585 0.728743 0.57425
1067 1 0.561415 0.728743 0.57425
63 2 0.769686 0.769686 0.53525
491 2 0.686615 0.603543 0.5507
555 1 0.603543 0.686615 0.543035
939 1 0.687799 0.728743 0.57425
507 2 0.935829 0.603543 0.5507
571 1 0.852758 0.686615 0.543035
827 1 0.81063 0.602359 0.57425
955 1 0.937014 0.728743 0.57425
1083 1 0.81063 0.728743 0.57425
463 2 0.188185 0.852758 0.5507
527 1 0.105114 0.935829 0.543035
783 1 0.0629859 0.851573 0.57425
911 1 0.18937 0.977958 0.57425
1039 1 0.0629859 0.977958 0.57425
543 1 0.354329 0.935829 0.543035
799 1 0.312201 0.851573 0.57425
1055 1 0.312201 0.977958 0.57425
479 2 0.4374 0.852758 0.5507
815 1 0.561415 0.851573 0.57425
927 1 0.438585 0.977958 0.57425
1071 1 0.561415 0.977958 0.57425
495 2 0.686615 0.852758 0.5507
559 1 0.603543 0.935829 0.543035
943 1 0.687799 0.977958 0.57425
511 2 0.935829 0.852758 0.5507
575 1 0.852758 0.935829 0.543035
831 1 0.81063 0.851573 0.57425
959 1 0.937014 0.977958 0.57425
1087 1 0.81063 0.977958 0.57425
131 2 0.0220424 0.0220424 0.61325
323 2 0.188185 0.105114 0.5978
643 1 0.105114 0.188185 0.605465
1219 1 0.14665 0.14665 0.63675
1347 1 0.14665 0.0220424 0.63675
1475 1 0.0220424 0.14665 0.63675
147 2 0.271257 0.0220424 0.61325
659 1 0.354329 0.188185 0.605465
1235 1 0.395864 0.14665 0.63675
1363 1 0.395864 0.0220424 0.63675
1491 1 0.271257 0.14665 0.63675
163 2 0.520472 0.0220424 0.61325
339 2 0.4374 0.105114 0.5978