ITEM: TIMESTEP
0
ITEM: NUMBER OF ATOMS
382
ITEM: BOX BOUNDS pp pp pp
-3.6730000000000000e+00 1.0927000000000000e+01
-1.0178520000000000e+00 1.3582148000000000e+01
-1.0000000000000000e-02 2.3590000000000000e+01
ITEM: ATOMS id type xs ys zs
113 1 0.245274 0.0697159 0.000423729
223 1 0.160867 0.118448 0.0836864
109 1 0.251575 0.0697159 0.000423729
221 1 0.335982 0.118448 0.0836864
341 1 0.498402 0.118448 0.0836864
149 1 0.582808 0.0697159 0.000423729
275 1 0.667215 0.118448 0.0836864
153 1 0.914041 0.0697159 0.000423729
287 1 0.829634 0.118448 0.0836864
329 1 0.998448 0.118448 0.0836864
137 1 0.0859589 0.356572 0.000423729
139 1 0.0796575 0.356572 0.000423729
239 1 0.170366 0.405304 0.0836864
339 1 0.0796575 0.259107 0.0836864
1 2 0.251575 0.260953 0.0226732
8 2 0.251575 0.260953 0.1447
147 1 0.417192 0.356572 0.000423729
251 1 0.332785 0.405304 0.0836864
333 1 0.417192 0.259107 0.0836864
73 2 0.582808 0.260953 0.0226732
80 2 0.582808 0.260953 0.1447
209 1 0.748425 0.356572 0.000423729
289 1 0.501599 0.405304 0.0836864
367 1 0.664018 0.405304 0.0836864
369 1 0.748425 0.259107 0.0836864
75 2 0.914041 0.260953 0.0226732
82 2 0.914041 0.260953 0.1447
277 1 0.995251 0.405304 0.0836864
365 1 0.832831 0.405304 0.0836864
37 2 0.0859589 0.547809 0.0226732
44 2 0.0859589 0.547809 0.1447
253 1 0.00474918 0.69216 0.0836864
313 1 0.167169 0.69216 0.0836864
39 2 0.417192 0.547809 0.0226732
46 2 0.417192 0.547809 0.1447
207 1 0.251575 0.643428 0.000423729
241 1 0.498402 0.69216 0.0836864
311 1 0.335982 0.69216 0.0836864
315 1 0.251575 0.545964 0.0836864
77 2 0.748425 0.547809 0.0226732
84 2 0.748425 0.547809 0.1447
145 1 0.582808 0.643428 0.000423729
279 1 0.582808 0.545964 0.0836864
343 1 0.667215 0.69216 0.0836864
141 1 0.920342 0.643428 0.000423729
143 1 0.914041 0.643428 0.000423729
285 1 0.914041 0.545964 0.0836864
331 1 0.829634 0.69216 0.0836864
151 1 0.0859589 0.930284 0.000423729
243 1 0.0859589 0.83282 0.0836864
41 2 0.251575 0.834665 0.0226732
48 2 0.251575 0.834665 0.1447
155 1 0.417192 0.930284 0.000423729
249 1 0.417192 0.83282 0.0836864
3 2 0.582808 0.834665 0.0226732
10 2 0.582808 0.834665 0.1447
115 1 0.748425 0.930284 0.000423729
225 1 0.748425 0.83282 0.0836864
5 2 0.920342 0.834665 0.0226732
12 2 0.920342 0.834665 0.1447
111 1 0.754726 0.930284 0.000423729
11 2 0.0796575 0.165335 0.189199
30 2 0.0796575 0.165335 0.311225
119 1 0.245274 0.0697159 0.166949
9 2 0.417192 0.165335 0.189199
28 2 0.417192 0.165335 0.311225
117 1 0.251575 0.0697159 0.166949
229 1 0.251575 0.16718 0.250212
47 2 0.748425 0.165335 0.189199
66 2 0.748425 0.165335 0.311225
165 1 0.582808 0.0697159 0.166949
254 1 0.582808 0.16718 0.250212
163 1 0.914041 0.0697159 0.166949
247 1 0.914041 0.16718 0.250212
159 1 0.0859589 0.356572 0.166949
160 1 0.0796575 0.356572 0.166949
290 1 0.0859589 0.454037 0.250212
336 1 0.170366 0.30784 0.250212
83 2 0.251575 0.452191 0.189199
102 2 0.251575 0.452191 0.311225
161 1 0.417192 0.356572 0.166949
283 1 0.417192 0.454037 0.250212
346 1 0.332785 0.30784 0.250212
45 2 0.582808 0.452191 0.189199
64 2 0.582808 0.452191 0.311225
211 1 0.748425 0.356572 0.166949
246 1 0.501599 0.30784 0.250212
317 1 0.664018 0.30784 0.250212
319 1 0.748425 0.454037 0.250212
43 2 0.914041 0.452191 0.189199
62 2 0.914041 0.452191 0.311225
256 1 0.995251 0.30784 0.250212
318 1 0.832831 0.30784 0.250212
81 2 0.0859589 0.739047 0.189199
100 2 0.0859589 0.739047 0.311225
282 1 0.00474918 0.594696 0.250212
371 1 0.167169 0.594696 0.250212
79 2 0.417192 0.739047 0.189199
98 2 0.417192 0.739047 0.311225
212 1 0.251575 0.643428 0.166949
292 1 0.498402 0.594696 0.250212
372 1 0.335982 0.594696 0.250212
373 1 0.251575 0.740893 0.250212
7 2 0.748425 0.739047 0.189199
26 2 0.748425 0.739047 0.311225
162 1 0.582808 0.643428 0.166949
255 1 0.667215 0.594696 0.250212
337 1 0.582808 0.740893 0.250212
157 1 0.920342 0.643428 0.166949
158 1 0.914041 0.643428 0.166949
245 1 0.829634 0.594696 0.250212
344 1 0.920342 0.740893 0.250212
166 1 0.0859589 0.930284 0.166949
291 1 0.170366 0.881552 0.250212
335 1 0.00155212 0.881552 0.250212
164 1 0.417192 0.930284 0.166949
281 1 0.332785 0.881552 0.250212
120 1 0.748425 0.930284 0.166949
227 1 0.664018 0.881552 0.250212
345 1 0.501599 0.881552 0.250212
118 1 0.754726 0.930284 0.166949
228 1 0.839133 0.881552 0.250212
123 1 0.245274 0.0697159 0.333475
131 1 0.245274 0.0697159 0.5
232 1 0.160867 0.118448 0.416737
121 1 0.251575 0.0697159 0.333475
129 1 0.251575 0.0697159 0.5
230 1 0.335982 0.118448 0.416737
359 1 0.498402 0.118448 0.416737
173 1 0.582808 0.0697159 0.333475
199 1 0.582808 0.0697159 0.5
293 1 0.667215 0.118448 0.416737
183 1 0.914041 0.0697159 0.5
189 1 0.914041 0.0697159 0.333475
305 1 0.829634 0.118448 0.416737
347 1 0.998448 0.118448 0.416737
167 1 0.0859589 0.356572 0.333475
168 1 0.0796575 0.356572 0.333475
205 1 0.0859589 0.356572 0.5
206 1 0.0796575 0.356572 0.5
257 1 0.170366 0.405304 0.416737
357 1 0.0796575 0.259107 0.416737
13 2 0.251575 0.260953 0.355724
32 2 0.251575 0.260953 0.477751
181 1 0.417192 0.356572 0.5
192 1 0.417192 0.356572 0.333475
269 1 0.332785 0.405304 0.416737
351 1 0.417192 0.259107 0.416737
85 2 0.582808 0.260953 0.355724
104 2 0.582808 0.260953 0.477751
215 1 0.748425 0.356572 0.5
218 1 0.748425 0.356572 0.333475
307 1 0.501599 0.405304 0.416737
376 1 0.664018 0.405304 0.416737
378 1 0.748425 0.259107 0.416737
87 2 0.914041 0.260953 0.355724
106 2 0.914041 0.260953 0.477751
295 1 0.995251 0.405304 0.416737
374 1 0.832831 0.405304 0.416737
49 2 0.0859589 0.547809 0.355724
68 2 0.0859589 0.547809 0.477751
271 1 0.00474918 0.69216 0.416737
322 1 0.167169 0.69216 0.416737
51 2 0.417192 0.547809 0.355724
70 2 0.417192 0.547809 0.477751
213 1 0.251575 0.643428 0.333475
220 1 0.251575 0.643428 0.5
259 1 0.498402 0.69216 0.416737
320 1 0.335982 0.69216 0.416737
324 1 0.251575 0.545964 0.416737
89 2 0.748425 0.547809 0.355724
108 2 0.748425 0.547809 0.477751
171 1 0.582808 0.643428 0.333475
202 1 0.582808 0.643428 0.5
297 1 0.582808 0.545964 0.416737
361 1 0.667215 0.69216 0.416737
177 1 0.920342 0.643428 0.5
178 1 0.914041 0.643428 0.5
195 1 0.920342 0.643428 0.333475
196 1 0.914041 0.643428 0.333475
303 1 0.914041 0.545964 0.416737
349 1 0.829634 0.69216 0.416737
174 1 0.0859589 0.930284 0.333475
200 1 0.0859589 0.930284 0.5
261 1 0.0859589 0.83282 0.416737
53 2 0.251575 0.834665 0.355724
72 2 0.251575 0.834665 0.477751
184 1 0.417192 0.930284 0.5
190 1 0.417192 0.930284 0.333475
267 1 0.417192 0.83282 0.416737
15 2 0.582808 0.834665 0.355724
34 2 0.582808 0.834665 0.477751
124 1 0.748425 0.930284 0.333475
132 1 0.748425 0.930284 0.5
234 1 0.748425 0.83282 0.416737
17 2 0.920342 0.834665 0.355724
36 2 0.920342 0.834665 0.477751
122 1 0.754726 0.930284 0.333475
130 1 0.754726 0.930284 0.5
18 2 0.0796575 0.165335 0.644276
23 2 0.0796575 0.165335 0.522249
127 1 0.245274 0.0697159 0.666525
16 2 0.417192 0.165335 0.644276
21 2 0.417192 0.165335 0.522249
125 1 0.251575 0.0697159 0.666525
235 1 0.251575 0.16718 0.583263
54 2 0.748425 0.165335 0.644276
59 2 0.748425 0.165335 0.522249
187 1 0.582808 0.0697159 0.666525
266 1 0.582808 0.16718 0.583263
175 1 0.914041 0.0697159 0.666525
262 1 0.914041 0.16718 0.583263
193 1 0.0859589 0.356572 0.666525
194 1 0.0796575 0.356572 0.666525
302 1 0.0859589 0.454037 0.583263
350 1 0.170366 0.30784 0.583263
90 2 0.251575 0.452191 0.644276
95 2 0.251575 0.452191 0.522249
172 1 0.417192 0.356572 0.666525
298 1 0.417192 0.454037 0.583263
360 1 0.332785 0.30784 0.583263
52 2 0.582808 0.452191 0.644276
57 2 0.582808 0.452191 0.522249
214 1 0.748425 0.356572 0.666525
260 1 0.501599 0.30784 0.583263
321 1 0.664018 0.30784 0.583263
325 1 0.748425 0.454037 0.583263
50 2 0.914041 0.452191 0.644276
55 2 0.914041 0.452191 0.522249
270 1 0.995251 0.30784 0.583263
323 1 0.832831 0.30784 0.583263
88 2 0.0859589 0.739047 0.644276
93 2 0.0859589 0.739047 0.522249
296 1 0.00474918 0.594696 0.583263
375 1 0.167169 0.594696 0.583263
86 2 0.417192 0.739047 0.644276
91 2 0.417192 0.739047 0.522249
217 1 0.251575 0.643428 0.666525
306 1 0.498402 0.594696 0.583263
377 1 0.335982 0.594696 0.583263
379 1 0.251575 0.740893 0.583263
14 2 0.748425 0.739047 0.644276
19 2 0.748425 0.739047 0.522249
191 1 0.582808 0.643428 0.666525
268 1 0.667215 0.594696 0.583263
352 1 0.582808 0.740893 0.583263
169 1 0.920342 0.643428 0.666525
170 1 0.914041 0.643428 0.666525
258 1 0.829634 0.594696 0.583263
356 1 0.920342 0.740893 0.583263
188 1 0.0859589 0.930284 0.666525
304 1 0.170366 0.881552 0.583263
348 1 0.00155212 0.881552 0.583263
176 1 0.417192 0.930284 0.666525
294 1 0.332785 0.881552 0.583263
128 1 0.748425 0.930284 0.666525
231 1 0.664018 0.881552 0.583263
358 1 0.501599 0.881552 0.583263
126 1 0.754726 0.930284 0.666525
233 1 0.839133 0.881552 0.583263
135 1 0.245274 0.0697159 0.833051
237 1 0.160867 0.118448 0.749788
133 1 0.251575 0.0697159 0.833051
236 1 0.335982 0.118448 0.749788
363 1 0.498402 0.118448 0.749788
185 1 0.582808 0.0697159 0.833051
299 1 0.667215 0.118448 0.749788
197 1 0.914041 0.0697159 0.833051
309 1 0.829634 0.118448 0.749788
353 1 0.998448 0.118448 0.749788
179 1 0.0859589 0.356572 0.833051
180 1 0.0796575 0.356572 0.833051
263 1 0.170366 0.405304 0.749788
362 1 0.0796575 0.259107 0.749788
20 2 0.251575 0.260953 0.810801
25 2 0.251575 0.260953 0.688775
201 1 0.417192 0.356572 0.833051
273 1 0.332785 0.405304 0.749788
355 1 0.417192 0.259107 0.749788
92 2 0.582808 0.260953 0.810801
97 2 0.582808 0.260953 0.688775
219 1 0.748425 0.356572 0.833051
310 1 0.501599 0.405304 0.749788
381 1 0.664018 0.405304 0.749788
382 1 0.748425 0.259107 0.749788
94 2 0.914041 0.260953 0.810801
99 2 0.914041 0.260953 0.688775
300 1 0.995251 0.405304 0.749788
380 1 0.832831 0.405304 0.749788
56 2 0.0859589 0.547809 0.810801
61 2 0.0859589 0.547809 0.688775
274 1 0.00474918 0.69216 0.749788
327 1 0.167169 0.69216 0.749788
58 2 0.417192 0.547809 0.810801
63 2 0.417192 0.547809 0.688775
216 1 0.251575 0.643428 0.833051
264 1 0.498402 0.69216 0.749788
326 1 0.335982 0.69216 0.749788
328 1 0.251575 0.545964 0.749788
96 2 0.748425 0.547809 0.810801
101 2 0.748425 0.547809 0.688775
182 1 0.582808 0.643428 0.833051
301 1 0.582808 0.545964 0.749788
364 1 0.667215 0.69216 0.749788
203 1 0.920342 0.643428 0.833051
204 1 0.914041 0.643428 0.833051
308 1 0.914041 0.545964 0.749788
354 1 0.829634 0.69216 0.749788
186 1 0.0859589 0.930284 0.833051
265 1 0.0859589 0.83282 0.749788
60 2 0.251575 0.834665 0.810801
65 2 0.251575 0.834665 0.688775
198 1 0.417192 0.930284 0.833051
272 1 0.417192 0.83282 0.749788
22 2 0.582808 0.834665 0.810801
27 2 0.582808 0.834665 0.688775
136 1 0.748425 0.930284 0.833051
238 1 0.748425 0.83282 0.749788
24 2 0.920342 0.834665 0.810801
29 2 0.920342 0.834665 0.688775
134 1 0.754726 0.930284 0.833051
6 2 0.0796575 0.165335 0.977327
35 2 0.0796575 0.165335 0.8553
114 1 0.245274 0.0697159 0.999576
4 2 0.417192 0.165335 0.977327
33 2 0.417192 0.165335 0.8553
110 1 0.251575 0.0697159 0.999576
226 1 0.251575 0.16718 0.916314
42 2 0.748425 0.165335 0.977327
71 2 0.748425 0.165335 0.8553
150 1 0.582808 0.0697159 0.999576
248 1 0.582808 0.16718 0.916314
154 1 0.914041 0.0697159 0.999576
244 1 0.914041 0.16718 0.916314
138 1 0.0859589 0.356572 0.999576
140 1 0.0796575 0.356572 0.999576
284 1 0.0859589 0.454037 0.916314
332 1 0.170366 0.30784 0.916314
78 2 0.251575 0.452191 0.977327
107 2 0.251575 0.452191 0.8553
148 1 0.417192 0.356572 0.999576
280 1 0.417192 0.454037 0.916314
342 1 0.332785 0.30784 0.916314
40 2 0.582808 0.452191 0.977327
69 2 0.582808 0.452191 0.8553
210 1 0.748425 0.356572 0.999576
242 1 0.501599 0.30784 0.916314
312 1 0.664018 0.30784 0.916314
316 1 0.748425 0.454037 0.916314
38 2 0.914041 0.452191 0.977327
67 2 0.914041 0.452191 0.8553
252 1 0.995251 0.30784 0.916314
314 1 0.832831 0.30784 0.916314
76 2 0.0859589 0.739047 0.977327
105 2 0.0859589 0.739047 0.8553
278 1 0.00474918 0.594696 0.916314
366 1 0.167169 0.594696 0.916314
74 2 0.417192 0.739047 0.977327
103 2 0.417192 0.739047 0.8553
208 1 0.251575 0.643428 0.999576
288 1 0.498402 0.594696 0.916314
368 1 0.335982 0.594696 0.916314
370 1 0.251575 0.740893 0.916314
2 2 0.748425 0.739047 0.977327
31 2 0.748425 0.739047 0.8553
146 1 0.582808 0.643428 0.999576
250 1 0.667215 0.594696 0.916314
334 1 0.582808 0.740893 0.916314
142 1 0.920342 0.643428 0.999576
144 1 0.914041 0.643428 0.999576
240 1 0.829634 0.594696 0.916314
338 1 0.920342 0.740893 0.916314
152 1 0.0859589 0.930284 0.999576
286 1 0.170366 0.881552 0.916314
330 1 0.00155212 0.881552 0.916314
156 1 0.417192 0.930284 0.999576
276 1 0.332785 0.881552 0.916314
116 1 0.748425 0.930284 0.999576
222 1 0.664018 0.881552 0.916314
340 1 0.501599 0.881552 0.916314
112 1 0.754726 0.930284 0.999576
224 1 0.839133 0.881552 0.916314
ITEM: TIMESTEP
100
ITEM: NUMBER OF ATOMS
382
ITEM: BOX BOUNDS pp pp pp
-3.6730000000000000e+00 1.0927000000000000e+01
-1.0178520000000000e+00 1.3582148000000000e+01
-1.0000000000000000e-02 2.3590000000000000e+01
ITEM: ATOMS id type xs ys zs
113 1 0.158804 0.988629 0.0461772
223 1 0.164113 0.146987 0.0797684
109 1 0.291377 0.0702841 0.0112824
221 1 0.306522 0.0977658 0.108165
341 1 0.482021 0.142038 0.0873275
149 1 0.565048 0.0402009 0.0243589
275 1 0.653465 0.129446 0.0873817
153 1 0.932901 0.0512845 0.0187081
287 1 0.815523 0.124572 0.0776508
329 1 1.00356 0.16471 0.0765679
137 1 0.145105 0.381466 0.048116
139 1 0.992368 0.32491 0.051056
239 1 0.235356 0.502856 0.0965735
339 1 0.125573 0.216877 0.0778104
1 2 0.269075 0.258039 0.0152735
8 2 0.254435 0.258984 0.150645
147 1 0.428267 0.370571 0.0506143
251 1 0.292204 0.409947 0.0965847
333 1 0.417328 0.217506 0.0862317
73 2 0.583682 0.256975 0.0281327
80 2 0.576576 0.250216 0.154239
209 1 0.744114 0.363742 0.0315411
289 1 0.575683 0.429181 0.0812533
367 1 0.617044 0.426398 0.0813197
369 1 0.74196 0.222235 0.0791717
75 2 0.881422 0.231903 -0.00428006
82 2 0.898491 0.258203 0.141347
277 1 0.975211 0.477419 0.0932609
365 1 0.858057 0.417508 0.0920803
37 2 0.0913413 0.548002 0.0179642
44 2 0.0881989 0.57506 0.148349
253 1 0.054737 0.755763 0.0976742
313 1 0.179818 0.735205 0.0983287
39 2 0.47183 0.553218 0.0240766
46 2 0.41234 0.548887 0.143799
207 1 0.262973 0.637857 0.0324984
241 1 0.471678 0.732726 0.0867542
311 1 0.342994 0.74374 0.0853844
315 1 0.240771 0.517488 0.0956232
77 2 0.706242 0.549909 0.0131541
84 2 0.747174 0.540056 0.147256
145 1 0.596995 0.683466 0.0409725
279 1 0.587714 0.531741 0.0998343
343 1 0.741652 0.689217 0.0874009
141 1 0.961952 0.679116 0.0375812
143 1 0.860069 0.571246 0.0589375
285 1 0.97915 0.472444 0.0872782
331 1 0.798578 0.798831 0.0879578
151 1 0.0154819 0.975948 0.0915823
243 1 0.105467 0.844302 0.0907903
41 2 0.293009 0.892739 0.0155054
48 2 0.2673 0.87827 0.141761
155 1 0.420941 0.993115 0.0694271
249 1 0.420946 0.827867 0.0858302
3 2 0.557765 0.865898 0.0185032
10 2 0.591869 0.852384 0.150127
115 1 0.677989 0.973328 0.0960594
225 1 0.756178 0.82527 0.0893677
5 2 0.934994 0.853913 0.0221317
12 2 0.927025 0.854935 0.158039
111 1 0.839138 0.9644 0.0878309
11 2 0.0768088 0.16009 0.180881
30 2 0.0663237 0.164067 0.311974
119 1 0.152018 0.0162203 0.143479
9 2 0.413215 0.139628 0.193706
28 2 0.41909 0.145723 0.324728
117 1 0.283086 0.0237816 0.193631
229 1 0.232396 0.15706 0.249094
47 2 0.745587 0.133823 0.178336
66 2 0.741814 0.0822585 0.300316
165 1 0.562817 0.0415937 0.156214
254 1 0.58303 0.124532 0.243846
163 1 0.92433 0.0726841 0.147088
247 1 0.909405 0.146708 0.238976
159 1 0.0942614 0.404271 0.216208
160 1 0.0673456 0.337084 0.134387
290 1 0.0416559 0.534494 0.25412
336 1 0.174709 0.276894 0.251146
83 2 0.252402 0.456505 0.200183
102 2 0.258295 0.450745 0.322433
161 1 0.416778 0.352557 0.162875
283 1 0.417369 0.451009 0.253247
346 1 0.331565 0.297706 0.252168
45 2 0.57753 0.445721 0.193191
64 2 0.578013 0.438909 0.315321
211 1 0.736757 0.352429 0.154815
246 1 0.497907 0.290329 0.252195
317 1 0.675177 0.280072 0.245484
319 1 0.748561 0.450062 0.246822
43 2 0.922306 0.452937 0.191052
62 2 0.918807 0.437004 0.316344
256 1 0.987125 0.29268 0.245278
318 1 0.83602 0.30801 0.241989
81 2 0.116827 0.772461 0.197067
100 2 0.132325 0.77692 0.329393
282 1 0.0329276 0.546191 0.253991
371 1 0.170425 0.619554 0.255336
79 2 0.421112 0.749226 0.190045
98 2 0.409493 0.756361 0.319912
212 1 0.260826 0.647685 0.165133
292 1 0.496447 0.60036 0.246285
372 1 0.344775 0.6046 0.253129
373 1 0.267976 0.763246 0.253367
7 2 0.754084 0.73577 0.193172
26 2 0.753574 0.735825 0.324043
162 1 0.589713 0.667931 0.158008
255 1 0.663769 0.59355 0.248552
337 1 0.586789 0.750928 0.249518
157 1 0.970749 0.679186 0.205872
158 1 0.889712 0.675325 0.126571
245 1 0.851833 0.599359 0.258585
344 1 0.886664 0.781758 0.259756
166 1 0.0273542 0.990563 0.206048
291 1 0.170496 0.9291 0.252079
335 1 1.00681 0.857869 0.261267
164 1 0.43195 0.951004 0.171681
281 1 0.34686 0.882893 0.248879
120 1 0.688139 0.979255 0.20956
227 1 0.65733 0.84571 0.256795
345 1 0.512947 0.885089 0.251839
118 1 0.855007 0.995411 0.219896
228 1 0.826746 0.85916 0.25997
123 1 0.196482 0.0588831 0.330904
131 1 0.19417 0.0504011 0.491897
232 1 0.152593 0.131127 0.413398
121 1 0.324832 0.0287361 0.281541
129 1 0.318027 0.0305222 0.542521
230 1 0.313757 0.101276 0.423466
359 1 0.499611 0.102089 0.419208
173 1 0.566212 0.0456417 0.331843
199 1 0.572875 0.0392594 0.502504
293 1 0.662672 0.111449 0.412274
183 1 0.929984 0.0333915 0.482386
189 1 0.929178 0.0540845 0.321908
305 1 0.825873 0.0891865 0.411066
347 1 -0.012312 0.13152 0.408881
167 1 0.0956766 0.381909 0.312404
168 1 0.00271478 0.312056 0.382093
205 1 0.110849 0.401738 0.546977
206 1 0.0383822 0.335987 0.474545
257 1 0.149763 0.402421 0.414756
357 1 0.11104 0.215 0.418255
13 2 0.249635 0.248564 0.352958
32 2 0.244904 0.251246 0.482222
181 1 0.419115 0.344946 0.499549
192 1 0.420145 0.34194 0.336305
269 1 0.334784 0.402384 0.418617
351 1 0.417809 0.245492 0.417953
85 2 0.598285 0.233496 0.343855
104 2 0.5844 0.248234 0.475984
215 1 0.736149 0.354009 0.497434
218 1 0.741635 0.351549 0.328805
307 1 0.503889 0.405337 0.418385
376 1 0.654602 0.395992 0.41416
378 1 0.736635 0.241296 0.415932
87 2 0.869788 0.228298 0.339356
106 2 0.889943 0.241459 0.473116
295 1 0.980394 0.470816 0.419505
374 1 0.829367 0.390857 0.413631
49 2 0.0941229 0.56497 0.356617
68 2 0.090518 0.562486 0.485878
271 1 0.0158971 0.707955 0.421284
322 1 0.170215 0.692718 0.422866
51 2 0.424289 0.55434 0.353804
70 2 0.42297 0.557578 0.479314
213 1 0.264701 0.648345 0.340921
220 1 0.264163 0.650797 0.499805
259 1 0.493996 0.708497 0.417522
320 1 0.31744 0.756935 0.419084
324 1 0.257996 0.543541 0.42001
89 2 0.742877 0.536659 0.349573
108 2 0.743679 0.55111 0.477418
171 1 0.582562 0.651743 0.333563
202 1 0.579045 0.658299 0.499814
297 1 0.583755 0.550198 0.416776
361 1 0.666252 0.706155 0.419692
177 1 0.980532 0.680012 0.540039
178 1 0.909195 0.607213 0.469996
195 1 0.991899 0.682378 0.302127
196 1 0.902631 0.605253 0.368618
303 1 0.975288 0.476308 0.422837
349 1 0.833093 0.725095 0.424336
174 1 0.0658189 0.961816 0.33216
200 1 0.0677281 0.958717 0.51289
261 1 0.0996524 0.886391 0.42247
53 2 0.270136 0.911381 0.35715
72 2 0.264013 0.893685 0.483705
184 1 0.435342 0.960675 0.495157
190 1 0.438348 0.953855 0.334104
267 1 0.4209 0.855032 0.418721
15 2 0.580013 0.841746 0.352574
34 2 0.585423 0.857135 0.482905
124 1 0.682355 0.964965 0.36837
132 1 0.703008 0.97792 0.460209
234 1 0.764999 0.841078 0.419295
17 2 0.9361 0.834154 0.358841
36 2 0.929778 0.85026 0.486115
122 1 0.827326 0.953699 0.353911
130 1 0.807251 0.960414 0.527061
18 2 0.0558098 0.165853 0.644528
23 2 0.0620528 0.145513 0.515133
127 1 0.171049 0.0499299 0.658238
16 2 0.416472 0.157481 0.64394
21 2 0.421571 0.150567 0.514492
125 1 0.309474 0.0332187 0.635144
235 1 0.221663 0.154955 0.580938
54 2 0.730594 0.077316 0.639602
59 2 0.740571 0.120416 0.51451
187 1 0.565572 0.0413152 0.665322
266 1 0.579798 0.142647 0.579507
175 1 0.923172 0.0370415 0.663669
262 1 0.900597 0.106287 0.57217
193 1 0.0896919 0.376231 0.642674
194 1 -0.00675819 0.310523 0.709787
302 1 0.0302188 0.520078 0.588041
350 1 0.16556 0.262953 0.580561
90 2 0.24824 0.460945 0.646293
95 2 0.263326 0.454393 0.517356
172 1 0.410091 0.348875 0.665172
298 1 0.416959 0.451341 0.581661
360 1 0.329797 0.297414 0.580579
52 2 0.572673 0.434402 0.644143
57 2 0.579835 0.446498 0.51926
214 1 0.735922 0.354259 0.655899
260 1 0.504692 0.291734 0.581612
321 1 0.67572 0.24955 0.579218
325 1 0.744812 0.458722 0.575549
50 2 0.908312 0.434262 0.646122
55 2 0.911176 0.443335 0.518656
270 1 0.986104 0.291929 0.57243
323 1 0.826795 0.308643 0.571479
88 2 0.119022 0.762392 0.654507
93 2 0.119183 0.769848 0.519199
296 1 0.0137632 0.542939 0.586673
375 1 0.170963 0.610655 0.586643
86 2 0.406866 0.759259 0.653546
91 2 0.414891 0.756393 0.52078
217 1 0.259051 0.647692 0.673716
306 1 0.493875 0.598778 0.582559
377 1 0.343704 0.605815 0.584959
379 1 0.263477 0.761492 0.585757
14 2 0.749288 0.749756 0.65183
19 2 0.750126 0.749518 0.521596
191 1 0.579234 0.665738 0.663371
268 1 0.659806 0.598022 0.577601
352 1 0.583221 0.759835 0.580534
169 1 0.971438 0.676193 0.637935
170 1 0.880953 0.606436 0.700112
258 1 0.845444 0.606 0.58091
356 1 0.888797 0.782452 0.587054
188 1 0.064656 0.946091 0.673883
304 1 0.165304 0.917124 0.590776
348 1 1.00552 0.865674 0.588967
176 1 0.431468 0.955444 0.667708
294 1 0.339425 0.890438 0.587114
128 1 0.673651 0.964074 0.730056
231 1 0.681521 0.902257 0.583352
358 1 0.499774 0.893726 0.580275
126 1 0.793017 0.930755 0.672915
233 1 0.848897 0.852364 0.589246
135 1 0.14892 0.0123633 0.788964
237 1 0.158874 0.144046 0.738587
133 1 0.302845 0.0347457 0.802905
236 1 0.327148 0.14247 0.737449
363 1 0.489528 0.111772 0.743323
185 1 0.562073 0.0485098 0.823102
299 1 0.667969 0.114496 0.751757
197 1 0.939612 0.0279995 0.817536
309 1 0.825082 0.0538838 0.744851
353 1 0.0198405 0.0803664 0.740897
179 1 0.119003 0.368516 0.861993
180 1 0.0165449 0.319947 0.804075
263 1 0.144035 0.396243 0.748292
362 1 0.108611 0.213712 0.747435
20 2 0.246038 0.259945 0.807796
25 2 0.241486 0.264063 0.67805
201 1 0.417765 0.342998 0.842452
273 1 0.327854 0.408104 0.751443
355 1 0.416962 0.25007 0.748307
92 2 0.585962 0.239817 0.807979
97 2 0.592209 0.233661 0.678359
219 1 0.739805 0.334797 0.833727
310 1 0.495971 0.400119 0.747872
381 1 0.65615 0.381934 0.743765
382 1 0.736213 0.229523 0.742241
94 2 0.896917 0.203931 0.781639
99 2 0.86133 0.222148 0.657857
300 1 0.964552 0.455128 0.755114
380 1 0.830311 0.370925 0.74323
56 2 0.0800278 0.541393 0.815885
61 2 0.0768809 0.556028 0.689511
274 1 0.0102787 0.704781 0.7504
327 1 0.160618 0.686369 0.755395
58 2 0.418629 0.557502 0.805522
63 2 0.419807 0.552574 0.682908
216 1 0.260119 0.643635 0.834781
264 1 0.500505 0.70742 0.748891
326 1 0.313332 0.745549 0.753087
328 1 0.247894 0.539471 0.752911
96 2 0.747973 0.529604 0.791713
101 2 0.731082 0.545131 0.669861
182 1 0.583663 0.644433 0.836974
301 1 0.579336 0.549623 0.741968
364 1 0.671678 0.693174 0.750354
203 1 0.940172 0.681382 0.868316
204 1 0.903937 0.603591 0.793837
308 1 0.948576 0.46778 0.750801
354 1 0.825255 0.733389 0.754241
186 1 0.061065 0.945948 0.857793
265 1 0.09338 0.864908 0.761543
60 2 0.255747 0.877481 0.820534
65 2 0.256415 0.901238 0.694247
198 1 0.431314 0.95573 0.842938
272 1 0.422018 0.867988 0.754151
22 2 0.595843 0.842126 0.807616
27 2 0.57876 0.85704 0.676447
136 1 0.70092 0.978508 0.821376
238 1 0.770249 0.83291 0.756509
24 2 0.927727 0.84046 0.818486
29 2 0.932494 0.842047 0.690104
134 1 0.827367 0.964661 0.867088
6 2 0.0882021 0.143333 0.980448
35 2 0.0700534 0.151502 0.84826
114 1 0.168154 0.0361055 0.903776
4 2 0.435991 0.150454 0.971557
33 2 0.413349 0.14721 0.844502
110 1 0.322429 0.0396223 0.909549
226 1 0.225882 0.183938 0.909911
42 2 0.720364 0.110767 0.984588
71 2 0.752107 0.129599 0.859852
150 1 0.588841 0.0229882 0.922527
248 1 0.593689 0.186132 0.915495
154 1 0.933755 0.0833791 0.917026
244 1 0.90381 0.236686 0.888581
138 1 0.161529 0.398388 0.950888
140 1 0.0230714 0.31799 0.948698
284 1 0.0322877 0.484909 0.917382
332 1 0.188715 0.248795 0.91482
78 2 0.295714 0.473035 0.991691
107 2 0.267652 0.45667 0.859562
148 1 0.416156 0.345692 0.954032
280 1 0.438081 0.498222 0.913915
342 1 0.301296 0.269313 0.909972
40 2 0.590158 0.414944 0.958955
69 2 0.579176 0.443102 0.840072
210 1 0.767188 0.343743 0.933352
242 1 0.537688 0.263454 0.912564
312 1 0.641158 0.244198 0.917903
316 1 0.732897 0.501582 0.901613
38 2 0.895147 0.450924 0.985026
67 2 0.897105 0.428583 0.855829
252 1 0.9177 0.264074 0.883633
314 1 0.882448 0.263674 0.883982
76 2 0.13367 0.757178 0.995729
105 2 0.110761 0.74402 0.857137
278 1 0.00272155 0.531461 0.916319
366 1 0.139146 0.570789 0.915312
74 2 0.416535 0.736197 0.976977
103 2 0.418775 0.752328 0.847433
208 1 0.270757 0.643815 0.934728
288 1 0.460088 0.51134 0.913143
368 1 0.407067 0.571989 0.918456
370 1 0.265835 0.797934 0.918637
2 2 0.73568 0.759165 0.986928
31 2 0.75361 0.712878 0.85718
146 1 0.568667 0.620501 0.940133
250 1 0.70113 0.545009 0.901109
334 1 0.58304 0.772111 0.912954
142 1 0.0118378 0.67469 0.947742
144 1 0.851628 0.628856 0.952858
240 1 0.755092 0.537079 0.903259
338 1 0.870354 0.800118 0.921975
152 1 0.0542458 0.972654 0.96967
286 1 0.179484 0.880811 0.922811
330 1 0.00532914 0.83584 0.923082
156 1 0.437613 0.97833 0.968446
276 1 0.345397 0.873507 0.914373
116 1 0.705038 0.943409 1.00004
222 1 0.675074 0.874229 0.90799
340 1 0.518547 0.866902 0.910846
112 1 0.839971 0.974263 0.960966
224 1 0.845609 0.832532 0.917813
ITEM: TIMESTEP
200
ITEM: NUMBER OF ATOMS
382
ITEM: BOX BOUNDS pp pp pp
-3.6730000000000000e+00 1.0927000000000000e+01
-1.0178520000000000e+00 1.3582148000000000e+01
-1.0000000000000000e-02 2.3590000000000000e+01
ITEM: ATOMS id type xs ys zs
113 1 0.15673 0.988272 0.0451248
223 1 0.165359 0.143519 0.0797165
109 1 0.289763 0.070921 0.010586
221 1 0.306728 0.0945992 0.108274
341 1 0.481107 0.142038 0.0870595
149 1 0.565162 0.0399288 0.0245061
275 1 0.652847 0.129213 0.0869442
153 1 0.935373 0.051683 0.0177327
287 1 0.817512 0.127104 0.0764703
329 1 1.00339 0.162856 0.0762244
137 1 0.147742 0.383933 0.0490507
139 1 0.994071 0.326633 0.050686
239 1 0.238159 0.509062 0.0960992
339 1 0.124729 0.219806 0.0772427
1 2 0.268565 0.25911 0.0144841
8 2 0.256033 0.257071 0.149584
147 1 0.431007 0.372587 0.0520888
251 1 0.293504 0.410433 0.0967132
333 1 0.416628 0.217949 0.086229
73 2 0.583244 0.25683 0.0278406
80 2 0.575833 0.249017 0.154307
209 1 0.7442 0.363202 0.0303263
289 1 0.584476 0.428725 0.0800623
367 1 0.615992 0.425753 0.0799707
369 1 0.742187 0.222072 0.0783033
75 2 0.882961 0.231941 -0.0053148
82 2 0.900062 0.259916 0.140631
277 1 0.981574 0.468927 0.0938095
365 1 0.857808 0.416102 0.0921223
37 2 0.0932279 0.546857 0.0184646
44 2 0.0872874 0.575505 0.148508
253 1 0.0531311 0.757339 0.0980812
313 1 0.180101 0.735917 0.0985268
39 2 0.47389 0.551545 0.0238807
46 2 0.410411 0.548137 0.143383
207 1 0.262379 0.637816 0.0325381
241 1 0.471932 0.731879 0.0872138
311 1 0.343249 0.74349 0.0857158
315 1 0.237501 0.516511 0.0966439
77 2 0.706916 0.549611 0.0129405
84 2 0.746592 0.539531 0.147132
145 1 0.596691 0.683204 0.0407956
279 1 0.587897 0.532903 0.100479
343 1 0.740563 0.688226 0.0881607
141 1 0.964087 0.677647 0.0367396
143 1 0.861501 0.57169 0.0604926
285 1 0.977491 0.473846 0.0871458
331 1 0.791997 0.806862 0.0900769
151 1 0.0133273 0.978714 0.0921878
243 1 0.103108 0.846456 0.0918697
41 2 0.293209 0.892982 0.0161053
48 2 0.26713 0.877309 0.142553
155 1 0.420996 0.99298 0.0694347
249 1 0.421521 0.828087 0.0863663
3 2 0.55771 0.865796 0.0188872
10 2 0.592908 0.851751 0.150398
115 1 0.679494 0.973253 0.098014
225 1 0.760592 0.825795 0.0907381
5 2 0.935083 0.852556 0.0233113
12 2 0.926278 0.858445 0.159211
111 1 0.840082 0.96747 0.0864078
11 2 0.0780134 0.161123 0.179841
30 2 0.0659646 0.164312 0.310826
119 1 0.147913 0.0112958 0.144173
9 2 0.412973 0.138013 0.194043
28 2 0.418795 0.14622 0.325124
117 1 0.279681 0.0243336 0.193681
229 1 0.23268 0.157637 0.249008
47 2 0.746365 0.133641 0.177437
66 2 0.740755 0.0813964 0.300636
165 1 0.561546 0.0411835 0.155856
254 1 0.583735 0.12424 0.243308
163 1 0.922341 0.0737416 0.148286
247 1 0.910354 0.150779 0.238544
159 1 0.0895219 0.408825 0.219426
160 1 0.0708188 0.341808 0.135463
290 1 0.036051 0.539986 0.254953
336 1 0.174966 0.279093 0.249857
83 2 0.24858 0.454491 0.198996
102 2 0.25752 0.452263 0.321794
161 1 0.416248 0.352709 0.16318
283 1 0.415962 0.450925 0.252817
346 1 0.331 0.297323 0.251935
45 2 0.576366 0.44487 0.192616
64 2 0.577815 0.43896 0.314891
211 1 0.735202 0.351777 0.153033
246 1 0.497094 0.289738 0.252091
317 1 0.675538 0.279793 0.24491
319 1 0.747456 0.450035 0.246298
43 2 0.921822 0.456182 0.191045
62 2 0.920606 0.437542 0.315793
256 1 0.985042 0.292904 0.244854
318 1 0.836049 0.309159 0.241127
81 2 0.115224 0.771639 0.197641
100 2 0.132613 0.777291 0.329837
282 1 0.0357789 0.543978 0.253069
371 1 0.169494 0.618455 0.255199
79 2 0.421529 0.748428 0.190306
98 2 0.408674 0.755997 0.320072
212 1 0.260048 0.647418 0.165108
292 1 0.496755 0.599581 0.246157
372 1 0.343597 0.602996 0.253027
373 1 0.26759 0.762459 0.253004
7 2 0.755508 0.735081 0.193937
26 2 0.755157 0.73572 0.324585
162 1 0.59073 0.668109 0.158254
255 1 0.664013 0.592558 0.248453
337 1 0.587556 0.750074 0.249445
157 1 0.967709 0.676049 0.205714
158 1 0.889547 0.682981 0.12495
245 1 0.851178 0.598859 0.259525
344 1 0.887925 0.78288 0.260203
166 1 0.0240702 0.995825 0.210835
291 1 0.169754 0.929468 0.251336
335 1 1.00772 0.858393 0.261859
164 1 0.430584 0.950702 0.172013
281 1 0.345976 0.881779 0.249158
120 1 0.686908 0.980094 0.210512
227 1 0.657744 0.844946 0.256845
345 1 0.512424 0.885148 0.251916
118 1 0.854749 0.998236 0.2229
228 1 0.826215 0.860036 0.260529
123 1 0.200453 0.0622527 0.331625
131 1 0.198082 0.0547112 0.489486
232 1 0.147476 0.134784 0.412446
121 1 0.327233 0.0284194 0.280416
129 1 0.316641 0.0284567 0.545374
230 1 0.311313 0.0977015 0.420139
359 1 0.500642 0.0999825 0.41961