ITEM: TIMESTEP
0
ITEM: NUMBER OF ATOMS
382
ITEM: BOX BOUNDS pp pp pp
-3.6730000000000000e+00 1.0927000000000000e+01
-1.0178520000000000e+00 1.3582148000000000e+01
-1.0000000000000000e-02 2.3590000000000000e+01
ITEM: ATOMS id type xs ys zs
223 1 0.165359 0.143518 0.0797164
329 1 0.00338957 0.162856 0.0762244
339 1 0.124728 0.219807 0.0772425
119 1 0.147912 0.0112947 0.144173
109 1 0.289763 0.0709211 0.0105858
221 1 0.306728 0.0945983 0.108274
341 1 0.481107 0.142038 0.0870594
333 1 0.416628 0.217949 0.086229
149 1 0.565162 0.0399287 0.0245061
275 1 0.652847 0.129213 0.0869441
80 2 0.575833 0.249017 0.154307
369 1 0.742188 0.222072 0.0783031
165 1 0.561546 0.0411833 0.155856
153 1 0.935373 0.0516832 0.0177324
287 1 0.817513 0.127105 0.0764701
163 1 0.92234 0.0737417 0.148286
137 1 0.147742 0.383934 0.0490511
160 1 0.0708197 0.341808 0.135464
1 2 0.268565 0.25911 0.014484
8 2 0.256034 0.257071 0.149583
147 1 0.431008 0.372588 0.0520891
251 1 0.293504 0.410433 0.0967131
161 1 0.416247 0.352709 0.16318
73 2 0.583243 0.25683 0.0278404
209 1 0.7442 0.363202 0.030326
289 1 0.584478 0.428725 0.0800614
367 1 0.615992 0.425754 0.0799709
211 1 0.735202 0.351777 0.153033
139 1 0.994072 0.326633 0.0506858
82 2 0.900063 0.259916 0.140631
277 1 0.981575 0.468926 0.0938085
365 1 0.857807 0.416102 0.0921222
285 1 0.977492 0.473845 0.0871467
239 1 0.238159 0.509064 0.0960989
37 2 0.0932286 0.546857 0.0184649
44 2 0.0872882 0.575505 0.148508
313 1 0.180101 0.735917 0.0985268
315 1 0.237501 0.516511 0.0966443
39 2 0.47389 0.551544 0.0238806
46 2 0.410411 0.548137 0.143383
207 1 0.262379 0.637817 0.0325381
241 1 0.471932 0.731879 0.0872139
311 1 0.343249 0.74349 0.0857159
212 1 0.260047 0.647418 0.165108
77 2 0.706916 0.549611 0.0129404
84 2 0.746592 0.539531 0.147132
145 1 0.596691 0.683204 0.0407955
279 1 0.587897 0.532903 0.100479
343 1 0.740562 0.688226 0.0881609
162 1 0.59073 0.668109 0.158254
141 1 0.964087 0.677647 0.0367393
143 1 0.861502 0.57169 0.0604928
158 1 0.889547 0.682983 0.124949
113 1 0.15673 0.988272 0.0451247
253 1 0.0531305 0.757339 0.0980813
151 1 0.0133268 0.978715 0.0921879
243 1 0.103107 0.846456 0.09187
41 2 0.293209 0.892982 0.0161055
48 2 0.26713 0.877309 0.142554
155 1 0.420996 0.99298 0.0694347
249 1 0.421521 0.828087 0.0863665
3 2 0.55771 0.865796 0.0188874
10 2 0.592908 0.851751 0.150398
115 1 0.679494 0.973252 0.0980144
116 1 0.705276 0.943228 0.00208761
331 1 0.791996 0.806864 0.0900777
225 1 0.760594 0.825795 0.0907382
5 2 0.935083 0.852556 0.0233115
12 2 0.926278 0.858446 0.159211
111 1 0.840082 0.967471 0.0864074
11 2 0.0780136 0.161123 0.179841
30 2 0.0659646 0.164312 0.310826
229 1 0.23268 0.157637 0.249008
123 1 0.200454 0.0622535 0.331625
9 2 0.412973 0.138013 0.194043
28 2 0.418795 0.14622 0.325124
117 1 0.27968 0.0243337 0.193681
121 1 0.327233 0.0284193 0.280416
47 2 0.746365 0.133641 0.177437
66 2 0.740755 0.0813962 0.300636
254 1 0.583735 0.12424 0.243308
173 1 0.56592 0.0456713 0.331051
247 1 0.910354 0.15078 0.238544
189 1 0.929009 0.0517036 0.319422
159 1 0.089521 0.408827 0.219427
336 1 0.174965 0.279094 0.249857
83 2 0.248579 0.45449 0.198996
167 1 0.0958507 0.378651 0.313691
102 2 0.25752 0.452263 0.321794
283 1 0.415962 0.450925 0.252817
346 1 0.331 0.297323 0.251935
246 1 0.497094 0.289737 0.252091
45 2 0.576366 0.444869 0.192616
64 2 0.577815 0.43896 0.314891
317 1 0.675538 0.279793 0.24491
319 1 0.747456 0.450035 0.246298
218 1 0.741621 0.351999 0.328437
43 2 0.921822 0.456182 0.191045
62 2 0.920605 0.437541 0.315793
256 1 0.985042 0.292904 0.244854
318 1 0.836049 0.30916 0.241127
290 1 0.0360506 0.539988 0.254953
282 1 0.0357788 0.543977 0.253069
371 1 0.169494 0.618455 0.255199
79 2 0.421529 0.748428 0.190306
292 1 0.496756 0.599581 0.246157
372 1 0.343597 0.602996 0.253027
255 1 0.664013 0.592558 0.248453
7 2 0.755509 0.735081 0.193937
26 2 0.755157 0.73572 0.324585
157 1 0.967708 0.676048 0.205714
245 1 0.851177 0.598859 0.259525
195 1 0.992085 0.681965 0.30172
81 2 0.115224 0.771639 0.197641
100 2 0.132613 0.777291 0.329838
166 1 0.0240696 0.995827 0.210837
291 1 0.169754 0.929468 0.251336
335 1 0.00771894 0.858393 0.261859
174 1 0.0685769 0.963854 0.331896
98 2 0.408673 0.755997 0.320072
373 1 0.26759 0.762459 0.253004
164 1 0.430584 0.950702 0.172013
281 1 0.345976 0.881779 0.249158
337 1 0.587556 0.750074 0.249445
120 1 0.686908 0.980095 0.210512
227 1 0.657744 0.844946 0.256845
345 1 0.512424 0.885148 0.251916
344 1 0.887925 0.78288 0.260203
118 1 0.854748 0.998237 0.222901
228 1 0.826215 0.860037 0.260529
131 1 0.198083 0.0547122 0.489486
232 1 0.147475 0.134785 0.412446
357 1 0.10995 0.212017 0.417894
230 1 0.311313 0.0977009 0.420138
351 1 0.416357 0.245746 0.418081
359 1 0.500642 0.099982 0.41961
293 1 0.662831 0.11029 0.412453
85 2 0.598737 0.233314 0.343528
104 2 0.583167 0.248844 0.475725
378 1 0.736651 0.242662 0.415742
183 1 0.929765 0.0314585 0.480587
305 1 0.824176 0.0918844 0.410151
347 1 0.986323 0.13044 0.407663
87 2 0.869394 0.228626 0.338553
106 2 0.891495 0.242205 0.472088
168 1 0.00234645 0.31085 0.383887
206 1 0.0420666 0.33436 0.476697
257 1 0.146704 0.406514 0.414401
13 2 0.248542 0.25021 0.352679
32 2 0.243655 0.250302 0.482002
181 1 0.418593 0.344841 0.499354
192 1 0.419977 0.342077 0.336139
269 1 0.333817 0.402077 0.418126
215 1 0.73518 0.35388 0.497143
307 1 0.502986 0.405853 0.418248
376 1 0.654425 0.396868 0.413873
295 1 0.982245 0.46902 0.420733
374 1 0.828806 0.392267 0.413554
303 1 0.982313 0.473316 0.423101
49 2 0.0923577 0.5651 0.355832
68 2 0.0918224 0.563123 0.486766
271 1 0.0157039 0.709529 0.421943
322 1 0.169995 0.693512 0.423257
51 2 0.424259 0.554085 0.353735
70 2 0.422533 0.558552 0.47934
213 1 0.264094 0.648382 0.340903
259 1 0.494179 0.708405 0.417431
324 1 0.257976 0.54425 0.420163
89 2 0.743082 0.536431 0.349467
108 2 0.744015 0.552545 0.47746
171 1 0.583099 0.651234 0.333483
202 1 0.579165 0.658701 0.499749
297 1 0.583994 0.550522 0.416818
361 1 0.666603 0.706611 0.419734
178 1 0.911174 0.604796 0.469145
196 1 0.904166 0.602988 0.369103
349 1 0.835994 0.724743 0.424483
261 1 0.0999831 0.887734 0.422612
320 1 0.317603 0.757092 0.419409
53 2 0.270202 0.912483 0.357271
72 2 0.264179 0.894783 0.484156
184 1 0.434822 0.965137 0.492418
190 1 0.438558 0.953646 0.334979
267 1 0.420937 0.853406 0.419086
15 2 0.579905 0.840218 0.352186
34 2 0.586316 0.858976 0.482671
124 1 0.679647 0.964363 0.370543
132 1 0.710461 0.97668 0.462115
234 1 0.764168 0.838681 0.418886
17 2 0.936832 0.836602 0.35912
36 2 0.928791 0.85307 0.486528
122 1 0.825553 0.9547 0.35591
18 2 0.0538743 0.164431 0.644456
23 2 0.061383 0.143432 0.514992
127 1 0.170664 0.0499912 0.658164
235 1 0.220855 0.154122 0.581189
129 1 0.316641 0.0284562 0.545374
16 2 0.416927 0.158853 0.643413
21 2 0.419983 0.148699 0.513772
125 1 0.310346 0.0345377 0.638243
199 1 0.575933 0.0376428 0.503488
54 2 0.729946 0.0750094 0.637781
59 2 0.74134 0.123359 0.513023
187 1 0.565168 0.0405839 0.663868
266 1 0.579509 0.144804 0.578388
321 1 0.677156 0.247246 0.579506
175 1 0.919515 0.0361664 0.663828
262 1 0.9003 0.103473 0.57126
99 2 0.859189 0.221235 0.656297
205 1 0.110017 0.406151 0.549816
193 1 0.0880617 0.37608 0.644017
350 1 0.161551 0.263912 0.58002
90 2 0.247647 0.460318 0.645897
95 2 0.263229 0.453391 0.516768
172 1 0.408291 0.34924 0.664747
298 1 0.416317 0.451536 0.581196
360 1 0.329014 0.297207 0.580107
52 2 0.571504 0.433231 0.643724
57 2 0.579495 0.447545 0.518813
214 1 0.735603 0.353897 0.654975
260 1 0.504261 0.291659 0.581255
325 1 0.743919 0.458877 0.574972
50 2 0.907627 0.433863 0.646428
55 2 0.909791 0.442787 0.518398
270 1 0.986424 0.291474 0.572582
323 1 0.827 0.309108 0.570528
302 1 0.0258409 0.525867 0.587397
296 1 0.0157506 0.540412 0.586332
375 1 0.170802 0.611801 0.587427
220 1 0.263974 0.651408 0.50009
306 1 0.494183 0.599509 0.582529
377 1 0.343151 0.605771 0.585033
191 1 0.578974 0.666487 0.663267
268 1 0.660469 0.59957 0.577497
177 1 0.978272 0.682046 0.539467
14 2 0.750555 0.746921 0.651653
169 1 0.970695 0.67622 0.638147
258 1 0.845399 0.606162 0.581076
200 1 0.0717403 0.959688 0.513281
88 2 0.118622 0.762704 0.654964
93 2 0.118532 0.771268 0.519409
304 1 0.167141 0.915675 0.592531
348 1 0.00649164 0.866541 0.589405
86 2 0.406621 0.759467 0.654018
91 2 0.415589 0.757229 0.521111
379 1 0.263472 0.761393 0.585863
294 1 0.338435 0.889547 0.588682
358 1 0.498906 0.896557 0.579721
352 1 0.5842 0.760559 0.58025
231 1 0.681356 0.903942 0.585358
130 1 0.809405 0.967114 0.535238
19 2 0.75064 0.750334 0.521374
356 1 0.889142 0.785201 0.587272
233 1 0.852668 0.846904 0.589355
135 1 0.148061 0.00879906 0.78729
237 1 0.158208 0.143132 0.738975
353 1 0.0210195 0.0774087 0.739735
362 1 0.106313 0.214971 0.747317
133 1 0.302029 0.0338452 0.802487
236 1 0.326567 0.142047 0.736976
363 1 0.490976 0.111656 0.742918
185 1 0.563949 0.0491204 0.823389
299 1 0.66985 0.115653 0.751711
92 2 0.585114 0.240645 0.807338
97 2 0.593143 0.232736 0.678041
382 1 0.736124 0.22924 0.742571
197 1 0.938958 0.0260797 0.815599
309 1 0.820792 0.0485775 0.744739
94 2 0.897153 0.198941 0.779836
180 1 0.0135131 0.320431 0.803669
263 1 0.142509 0.395443 0.748016
20 2 0.245039 0.260507 0.807382
25 2 0.239819 0.263051 0.67743
273 1 0.326903 0.408548 0.751229
355 1 0.41579 0.250711 0.747941
310 1 0.495156 0.400262 0.747416
219 1 0.74049 0.333888 0.832931
381 1 0.657945 0.382944 0.742816
194 1 0.990045 0.310091 0.709639
300 1 0.961811 0.457634 0.754477
380 1 0.831379 0.368726 0.743184
308 1 0.951872 0.465891 0.75198
56 2 0.0808649 0.541104 0.816039
61 2 0.0773423 0.556129 0.689595
274 1 0.0111429 0.706164 0.74965
327 1 0.1605 0.685866 0.755565
328 1 0.247752 0.538006 0.753055
217 1 0.258936 0.647249 0.674042
58 2 0.418913 0.558092 0.806251
63 2 0.4197 0.552248 0.682844
326 1 0.313467 0.745122 0.753484
264 1 0.500801 0.707447 0.749091
101 2 0.729657 0.543586 0.669536
301 1 0.579928 0.550036 0.741595
364 1 0.672214 0.693918 0.750318
170 1 0.880501 0.603755 0.700543
96 2 0.751813 0.530458 0.790883
204 1 0.907971 0.604552 0.793976
354 1 0.825303 0.731616 0.754549
188 1 0.063942 0.946907 0.674663
265 1 0.0926502 0.860857 0.761698
176 1 0.431954 0.954269 0.668361
60 2 0.255596 0.876628 0.821535
65 2 0.256436 0.901577 0.695723
272 1 0.422527 0.867397 0.754722
128 1 0.671522 0.965106 0.731176
22 2 0.59618 0.842204 0.80833
27 2 0.579729 0.856121 0.676893
136 1 0.703151 0.977054 0.822526
126 1 0.78789 0.926421 0.670987
238 1 0.768868 0.83264 0.75617
24 2 0.926092 0.839974 0.819019
29 2 0.931446 0.843555 0.69079
6 2 0.0893411 0.142941 0.980014
35 2 0.0702412 0.150281 0.847619
114 1 0.168772 0.034683 0.902954
226 1 0.228186 0.18142 0.909037
4 2 0.435266 0.150482 0.971211
33 2 0.412738 0.147295 0.843635
110 1 0.323363 0.0387231 0.908999
42 2 0.720301 0.110597 0.983925
150 1 0.590371 0.020061 0.922921
248 1 0.592621 0.183789 0.91449
312 1 0.641691 0.244207 0.917348
75 2 0.882961 0.231941 0.994685
71 2 0.751338 0.131277 0.858803
154 1 0.932341 0.0839287 0.916192
244 1 0.903631 0.238821 0.886604
179 1 0.116833 0.370354 0.861617
138 1 0.15953 0.401621 0.951287
140 1 0.0224362 0.3175 0.946483
284 1 0.0310243 0.488158 0.917781
332 1 0.186423 0.251342 0.91444
201 1 0.418571 0.342926 0.842453
78 2 0.296219 0.474509 0.991635
107 2 0.267071 0.455813 0.860315
148 1 0.416606 0.345655 0.955019
280 1 0.439279 0.497132 0.912588
342 1 0.303295 0.268747 0.909086
40 2 0.592582 0.413961 0.957426
69 2 0.581979 0.443394 0.838705
242 1 0.537658 0.262714 0.912315
210 1 0.77021 0.342677 0.931531
38 2 0.895432 0.44996 0.985273
67 2 0.898411 0.426906 0.856434
252 1 0.913933 0.259636 0.882329
314 1 0.88856 0.259298 0.882791
105 2 0.109746 0.743187 0.857246
278 1 0.00652543 0.526252 0.916873
366 1 0.141248 0.570676 0.915418
142 1 0.0140998 0.670659 0.947026
216 1 0.25946 0.643357 0.834323
74 2 0.416936 0.735604 0.977539
208 1 0.272114 0.644869 0.934431
288 1 0.46099 0.509649 0.91231
368 1 0.407394 0.571156 0.918926
182 1 0.584075 0.645132 0.836332
316 1 0.733344 0.50212 0.900953
146 1 0.569495 0.620208 0.939468
250 1 0.702105 0.544526 0.900357
203 1 0.936756 0.682182 0.870301
31 2 0.752982 0.712446 0.857629
144 1 0.852022 0.629169 0.953764
240 1 0.756644 0.537183 0.902987
186 1 0.0595342 0.946277 0.857988
76 2 0.133047 0.757695 0.996224
152 1 0.0534811 0.971907 0.968415
286 1 0.178795 0.880158 0.922979
330 1 0.00441716 0.833909 0.9235
198 1 0.432008 0.956002 0.842993
103 2 0.41879 0.752632 0.847688
370 1 0.265604 0.798836 0.919804
156 1 0.438021 0.978314 0.968589
276 1 0.346151 0.873329 0.914944
2 2 0.736288 0.758792 0.988608
334 1 0.583424 0.772299 0.913504
222 1 0.683731 0.875172 0.907849
340 1 0.518557 0.866192 0.911296
134 1 0.829178 0.967858 0.869966
338 1 0.866311 0.805149 0.922069
112 1 0.841042 0.972621 0.963635
224 1 0.84583 0.831309 0.91849
ITEM: TIMESTEP
100
ITEM: NUMBER OF ATOMS
382
ITEM: BOX BOUNDS pp pp pp
-3.6730000000000000e+00 1.0927000000000000e+01
-1.0178520000000000e+00 1.3582148000000000e+01
-1.0000000000000000e-02 2.3590000000000000e+01
ITEM: ATOMS id type xs ys zs
223 1 0.171898 0.133783 0.0803259
329 1 0.00177256 0.158203 0.0767697
339 1 0.117106 0.233418 0.076233
119 1 0.134081 -0.0028122 0.148325
109 1 0.289794 0.0701717 0.00829191
221 1 0.311841 0.08069 0.109786
341 1 0.482974 0.138711 0.0862885
333 1 0.410603 0.23007 0.0864817
149 1 0.568911 0.0381908 0.0234769
275 1 0.656576 0.127484 0.0855916
80 2 0.574894 0.246985 0.153545
369 1 0.746431 0.224778 0.0764226
165 1 0.559094 0.040653 0.15461
153 1 0.941414 0.0524647 0.0127748
287 1 0.823473 0.130861 0.0768377
163 1 0.919045 0.0712829 0.152544
137 1 0.154226 0.389249 0.0540914
160 1 0.0787391 0.351751 0.138852
1 2 0.264038 0.26054 0.0126763
8 2 0.256732 0.251783 0.146876
147 1 0.441968 0.384924 0.0575948
251 1 0.299391 0.413723 0.0967935
161 1 0.4138 0.357029 0.163138
73 2 0.57986 0.255165 0.0281632
209 1 0.742848 0.363101 0.0262491
289 1 0.603497 0.419134 0.0755928
367 1 0.617027 0.429842 0.0772376
211 1 0.727281 0.352516 0.148089
139 1 1.00145 0.32449 0.0474771
82 2 0.902135 0.26282 0.138591
277 1 1.00422 0.470918 0.0815319
365 1 0.850334 0.417821 0.091427
285 1 0.965173 0.45794 0.094887
239 1 0.265089 0.517495 0.107111
37 2 0.0929871 0.550932 0.0172759
44 2 0.0844519 0.574993 0.149182
313 1 0.179805 0.731783 0.0991211
315 1 0.225357 0.520593 0.0880792
39 2 0.477709 0.548069 0.0232216
46 2 0.412368 0.548318 0.144862
207 1 0.264759 0.642485 0.0295573
241 1 0.472443 0.727931 0.0880808
311 1 0.341398 0.745238 0.0862519
212 1 0.259683 0.648965 0.167025
77 2 0.708676 0.548185 0.011436
84 2 0.744936 0.541203 0.146459
145 1 0.59567 0.679835 0.0389051
279 1 0.588695 0.529967 0.100315
343 1 0.736665 0.694813 0.0901884
162 1 0.591921 0.666645 0.158432
141 1 0.967664 0.676551 0.0328482
143 1 0.864131 0.572852 0.0630481
158 1 0.894231 0.699919 0.117326
113 1 0.151966 0.991852 0.0420158
253 1 0.0506702 0.754746 0.0992063
151 1 0.00663689 0.985413 0.0907283
243 1 0.0994273 0.854935 0.0932943
41 2 0.292488 0.893285 0.0175679
48 2 0.265287 0.876083 0.14371
155 1 0.424283 0.992343 0.0667728
249 1 0.423023 0.829594 0.0884003
3 2 0.559018 0.864094 0.0215387
10 2 0.590673 0.851517 0.152901
115 1 0.680102 0.973541 0.103631
116 1 0.708306 0.941056 0.00876766
331 1 0.79084 0.816416 0.0924926
225 1 0.763512 0.832936 0.0925604
5 2 0.93552 0.850308 0.0248893
12 2 0.925554 0.865602 0.159912
111 1 0.840302 0.973933 0.0803893
11 2 0.0791649 0.161379 0.177915
30 2 0.0651013 0.164331 0.308551
229 1 0.234418 0.161451 0.248541
123 1 0.210854 0.0719179 0.332489
9 2 0.412816 0.136008 0.194088
28 2 0.41922 0.147392 0.325203
117 1 0.268889 0.0265767 0.195409
121 1 0.334314 0.0269839 0.277965
47 2 0.746809 0.134518 0.17681
66 2 0.738268 0.0812741 0.302984
254 1 0.58565 0.123647 0.241709
173 1 0.566431 0.0443067 0.328932
247 1 0.912499 0.158949 0.237786
189 1 0.930193 0.0439509 0.313901
159 1 0.0739264 0.407411 0.226394
336 1 0.17398 0.286086 0.246922
83 2 0.242603 0.447223 0.200728
167 1 0.0976556 0.3712 0.320006
102 2 0.257247 0.454122 0.320315
283 1 0.411902 0.451231 0.251486
346 1 0.328817 0.295681 0.250629
246 1 0.494208 0.288608 0.250645
45 2 0.574305 0.443558 0.191702
64 2 0.577179 0.439046 0.31417
317 1 0.67704 0.279245 0.24309
319 1 0.743075 0.448963 0.24453
218 1 0.741919 0.352081 0.326996
43 2 0.915006 0.453304 0.188034
62 2 0.922025 0.43291 0.316546
256 1 0.977018 0.292745 0.243575
318 1 0.836573 0.311833 0.239247
290 1 0.0999877 0.552898 0.257064
282 1 0.00246505 0.550358 0.257069
371 1 0.169805 0.615532 0.252147
79 2 0.420304 0.747066 0.190495
292 1 0.496229 0.599734 0.24663
372 1 0.342877 0.597098 0.252034
255 1 0.664605 0.590146 0.248122
7 2 0.758146 0.735787 0.193124
26 2 0.758187 0.734423 0.325123
157 1 0.955697 0.67982 0.203052
245 1 0.838109 0.599988 0.260508
195 1 0.988103 0.692211 0.302255
81 2 0.110586 0.769071 0.198385
100 2 0.132148 0.780805 0.329953
166 1 0.0172399 1.01442 0.230638
291 1 0.168141 0.926871 0.249707
335 1 0.00681227 0.859214 0.262799
174 1 0.0773727 0.969737 0.3316
98 2 0.407762 0.755493 0.320012
373 1 0.267224 0.761461 0.251863
164 1 0.426262 0.949447 0.171865
281 1 0.344149 0.879337 0.250196
337 1 0.589453 0.748045 0.249867
120 1 0.683731 0.981513 0.211677
227 1 0.665659 0.845154 0.257424
345 1 0.510177 0.8862 0.253121
344 1 0.886587 0.793254 0.260391
118 1 0.846352 1.00313 0.228273
228 1 0.832821 0.857922 0.260267
131 1 0.210697 0.0663813 0.487556
232 1 0.138249 0.140023 0.411024
357 1 0.0986976 0.200107 0.416855
230 1 0.317181 0.0845577 0.411463
351 1 0.411511 0.24638 0.418148
359 1 0.504024 0.0927075 0.420301
293 1 0.664008 0.109013 0.414995
85 2 0.597959 0.233304 0.342462
104 2 0.580784 0.249405 0.474893
378 1 0.736609 0.244718 0.414536
183 1 0.930181 0.0263341 0.478552
305 1 0.824683 0.0966156 0.411162
347 1 0.986503 0.122426 0.405193
87 2 0.870501 0.229019 0.33814
106 2 0.895705 0.2467 0.470164
168 1 0.00937732 0.305068 0.386745
206 1 0.062153 0.330078 0.48224
257 1 0.162005 0.407902 0.416845
13 2 0.246068 0.251721 0.352797
32 2 0.241007 0.247901 0.48066
181 1 0.417075 0.344707 0.498669
192 1 0.420091 0.34187 0.335277
269 1 0.331287 0.401458 0.417101
215 1 0.73134 0.352128 0.496665
307 1 0.499987 0.409128 0.418094
376 1 0.653241 0.397978 0.412968
295 1 0.981851 0.465779 0.42468
374 1 0.824682 0.395528 0.413259
303 1 0.931341 0.439637 0.419764
49 2 0.104339 0.577036 0.355611
68 2 0.0932875 0.564444 0.486966
271 1 0.0161193 0.712513 0.422986
322 1 0.170699 0.696447 0.423676
51 2 0.424245 0.553849 0.353598
70 2 0.421616 0.559884 0.479637
213 1 0.266408 0.650696 0.340374
259 1 0.494074 0.708764 0.417019
324 1 0.258 0.545744 0.420582
89 2 0.743987 0.534545 0.349378
108 2 0.745804 0.552924 0.477001
171 1 0.584696 0.649547 0.333531
202 1 0.578721 0.659663 0.499534
297 1 0.584161 0.551016 0.416991
361 1 0.66691 0.707327 0.41955
178 1 0.915954 0.597005 0.467409
196 1 0.903518 0.603911 0.366743
349 1 0.841599 0.726268 0.425731
261 1 0.10034 0.890043 0.422508
320 1 0.318405 0.758342 0.420619
53 2 0.269647 0.914223 0.357366
72 2 0.264062 0.897565 0.485222
184 1 0.432071 0.980155 0.480471
190 1 0.43828 0.954399 0.339783
267 1 0.419607 0.847915 0.420757
15 2 0.580592 0.838458 0.350878
34 2 0.586961 0.861862 0.481337
124 1 0.671619 0.964143 0.381506
132 1 0.735178 0.96969 0.469927
234 1 0.764599 0.83209 0.418656
17 2 0.937179 0.842069 0.3604
36 2 0.926448 0.856372 0.487821
122 1 0.821031 0.958642 0.361544
18 2 0.0521456 0.162928 0.644392
23 2 0.0604141 0.140566 0.51511
127 1 0.169437 0.0477806 0.655603
235 1 0.221531 0.148245 0.581279
129 1 0.320029 0.021821 0.553118
16 2 0.418572 0.162089 0.642238
21 2 0.416767 0.146585 0.513107
125 1 0.313488 0.0397721 0.649049
199 1 0.583867 0.0314355 0.507176
54 2 0.729395 0.0730311 0.637182
59 2 0.742232 0.12741 0.512159
187 1 0.561444 0.0364187 0.654058
266 1 0.578974 0.150506 0.575451
321 1 0.679904 0.244751 0.580121
175 1 0.912289 0.0352874 0.666358
262 1 0.906225 0.105587 0.571979
99 2 0.857687 0.221514 0.654158
205 1 0.105471 0.423837 0.557881
193 1 0.0860251 0.374629 0.64815
350 1 0.152331 0.272952 0.576884
90 2 0.247239 0.459353 0.645463
95 2 0.261111 0.451586 0.515844
172 1 0.403675 0.351162 0.663457
298 1 0.415136 0.452148 0.579914
360 1 0.326588 0.295899 0.578849
52 2 0.570121 0.431535 0.643413
57 2 0.578898 0.448945 0.518128
214 1 0.735191 0.353652 0.652798
260 1 0.50212 0.292189 0.580519
325 1 0.740354 0.459735 0.574204
50 2 0.905994 0.434162 0.647317
55 2 0.907243 0.441911 0.524083
270 1 0.985249 0.291919 0.574508
323 1 0.825926 0.308404 0.569132
302 1 0.0077879 0.515997 0.585405
296 1 0.0202889 0.573424 0.589829
375 1 0.167737 0.613408 0.587789
220 1 0.263335 0.653206 0.50048
306 1 0.494326 0.603464 0.582907
377 1 0.340672 0.603714 0.584914
191 1 0.57762 0.667487 0.662636
268 1 0.663041 0.604694 0.577111
177 1 0.970885 0.686285 0.537821
14 2 0.751325 0.741542 0.653052
169 1 0.965786 0.683947 0.638121
258 1 0.846588 0.606012 0.58245
200 1 0.0822248 0.959498 0.513078
88 2 0.11814 0.763457 0.655567
93 2 0.116402 0.771903 0.51978
304 1 0.172386 0.911234 0.594787
348 1 0.00766013 0.870913 0.590943
86 2 0.405991 0.758885 0.654543
91 2 0.416017 0.758727 0.521849
379 1 0.263349 0.761552 0.585903
294 1 0.336307 0.884694 0.593909
358 1 0.496999 0.911587 0.575995
352 1 0.585564 0.763314 0.579746
231 1 0.687317 0.900183 0.583974
130 1 0.820689 0.980709 0.553839
19 2 0.750279 0.749283 0.520535
356 1 0.882429 0.795914 0.587648
233 1 0.858066 0.835321 0.589289
135 1 0.144845 -0.00115573 0.783749
237 1 0.159363 0.138068 0.739907
353 1 0.0246044 0.0742209 0.738428
362 1 0.0990211 0.221576 0.746846
133 1 0.300373 0.0315293 0.800277
236 1 0.330994 0.141256 0.736601
363 1 0.499863 0.108806 0.740767
185 1 0.570829 0.0509028 0.823881
299 1 0.678545 0.12323 0.754157
92 2 0.582093 0.242318 0.807303
97 2 0.594972 0.231446 0.677452
382 1 0.734211 0.224581 0.743659
197 1 0.93688 0.0205839 0.811009
309 1 0.810493 0.0377317 0.745707
94 2 0.897638 0.191139 0.775719
180 1 0.0081563 0.32027 0.802688
263 1 0.137942 0.394883 0.748014
20 2 0.242087 0.260413 0.807246
25 2 0.237626 0.260224 0.67715
273 1 0.324637 0.409702 0.750659
355 1 0.410298 0.252236 0.746868
310 1 0.493601 0.400264 0.746103
219 1 0.738414 0.333533 0.832944
381 1 0.662269 0.384751 0.741278
194 1 0.982546 0.30998 0.708642
300 1 0.963305 0.459295 0.755835
380 1 0.831248 0.358431 0.742364
308 1 0.950568 0.46865 0.751924
56 2 0.0833643 0.541591 0.816044
61 2 0.0790501 0.556806 0.688182
274 1 0.0134932 0.709018 0.747572
327 1 0.160407 0.685323 0.755509
328 1 0.24857 0.535356 0.753275
217 1 0.258816 0.645971 0.674642
58 2 0.420325 0.558045 0.807478
63 2 0.419259 0.55199 0.683108
326 1 0.313836 0.744039 0.75417
264 1 0.499367 0.707777 0.748988
101 2 0.727618 0.542577 0.669349
301 1 0.580802 0.551039 0.740916
364 1 0.669696 0.696156 0.749981
170 1 0.887202 0.59308 0.701005
96 2 0.756486 0.532574 0.790527
204 1 0.91728 0.606254 0.797573
354 1 0.831952 0.72004 0.75453
188 1 0.0636359 0.946662 0.677788
265 1 0.0912136 0.84917 0.762033
176 1 0.432356 0.949382 0.670766
60 2 0.255522 0.875141 0.823645
65 2 0.256065 0.901208 0.698088
272 1 0.423768 0.865402 0.756325
128 1 0.659509 0.974465 0.731567
22 2 0.596152 0.844673 0.809355
27 2 0.581164 0.855356 0.67669
136 1 0.711406 0.974318 0.821975
126 1 0.776647 0.917234 0.668253
238 1 0.764031 0.834833 0.757404
24 2 0.923881 0.838004 0.819812
29 2 0.928809 0.845699 0.692476
6 2 0.0894771 0.144067 0.979297
35 2 0.0697239 0.147097 0.846793
114 1 0.169709 0.0292878 0.89991
226 1 0.239853 0.169283 0.907539
4 2 0.433346 0.149404 0.971693
33 2 0.412308 0.147411 0.842017
110 1 0.327151 0.0331938 0.906543
42 2 0.722601 0.108472 0.983238
150 1 0.593083 0.0111364 0.923008
248 1 0.591719 0.175528 0.915349
312 1 0.65852 0.242295 0.914492
75 2 0.882902 0.232505 0.99829
71 2 0.754754 0.133263 0.857392
154 1 0.924532 0.0904152 0.915073
244 1 0.904981 0.23929 0.878689
179 1 0.113732 0.378436 0.858746
138 1 0.148966 0.408235 0.953816
140 1 0.0172314 0.312173 0.940192
284 1 0.027079 0.495102 0.918533
332 1 0.177577 0.260784 0.914346
201 1 0.419577 0.346697 0.839353
78 2 0.296655 0.475358 0.988943
107 2 0.268268 0.455085 0.860296
148 1 0.414376 0.346641 0.960452
280 1 0.444981 0.488698 0.912825
342 1 0.312827 0.263818 0.907017
40 2 0.597059 0.406689 0.954362
69 2 0.584808 0.447044 0.836381
242 1 0.528369 0.262024 0.912503
210 1 0.783865 0.340121 0.929493
38 2 0.89829 0.447035 0.987844
67 2 0.899008 0.42581 0.857256
252 1 0.91359 0.256491 0.874411
314 1 0.892962 0.25609 0.874975
105 2 0.108155 0.741529 0.857227
278 1 0.0194117 0.507379 0.918637
366 1 0.14915 0.568208 0.914727
142 1 0.0201157 0.658329 0.944193
216 1 0.25847 0.642124 0.833567
74 2 0.417216 0.734642 0.978946
208 1 0.275122 0.649734 0.933158
288 1 0.459221 0.49401 0.912384
368 1 0.40889 0.571749 0.919384
182 1 0.585212 0.65136 0.834417
316 1 0.736511 0.500881 0.899243
146 1 0.564326 0.61769 0.934333
250 1 0.700696 0.548347 0.897996
203 1 0.928299 0.688711 0.87577
31 2 0.751215 0.716351 0.85862
144 1 0.854491 0.629121 0.957404
240 1 0.76341 0.540838 0.900915
186 1 0.0557278 0.944188 0.857995
76 2 0.131617 0.75887 0.997873
152 1 0.0537577 0.969431 0.965347
286 1 0.178418 0.877546 0.923955
330 1 0.00259859 0.827505 0.924346
198 1 0.436451 0.956913 0.842868
103 2 0.418652 0.752336 0.84764
370 1 0.26031 0.802697 0.923429
156 1 0.441643 0.976086 0.967526
276 1 0.350883 0.872202 0.915903
2 2 0.737356 0.759407 0.990805
334 1 0.575544 0.778562 0.91473
222 1 0.693499 0.882905 0.90866
340 1 0.521071 0.861696 0.912636
134 1 0.834098 0.971582 0.874634
338 1 0.861073 0.813663 0.923361
112 1 0.841034 0.969669 0.967642
224 1 0.849095 0.829204 0.921038
ITEM: TIMESTEP
200
ITEM: NUMBER OF ATOMS
382
ITEM: BOX BOUNDS pp pp pp
-3.6730000000000000e+00 1.0927000000000000e+01
-1.0178520000000000e+00 1.3582148000000000e+01
-1.0000000000000000e-02 2.3590000000000000e+01
ITEM: ATOMS id type xs ys zs
223 1 0.181595 0.123787 0.0800814
329 1 0.00300062 0.152508 0.0753197
339 1 0.126558 0.221873 0.0797916
119 1 0.0938954 0.97649 0.160233
109 1 0.270713 0.074366 0.00380585
221 1 0.311785 0.0353195 0.111464
341 1 0.472707 0.135942 0.0847392
333 1 0.419754 0.238044 0.0831429
149 1 0.574089 0.0401138 0.0206816
275 1 0.655773 0.126041 0.0866025
80 2 0.571146 0.240112 0.152016
369 1 0.739389 0.221157 0.0749161
165 1 0.548834 0.0358648 0.152112
153 1 0.942311 0.0599071 0.00605357
287 1 0.826444 0.133208 0.0780002
163 1 0.924643 0.0633092 0.154481
137 1 0.156248 0.403955 0.0649839
160 1 0.0885933 0.36083 0.151929
1 2 0.259679 0.266014 0.00772969
8 2 0.265 0.246243 0.139976
147 1 0.449774 0.39137 0.0715769
251 1 0.306604 0.414622 0.0955997
161 1 0.411973 0.355132 0.167395
73 2 0.577699 0.242182 0.0201809
209 1 0.745585 0.355093 0.020783
289 1 0.612794 0.410198 0.0810247
367 1 0.644519 0.444398 0.0809521
211 1 0.72795 0.34526 0.148907
139 1 0.0340838 0.315135 0.0309292
82 2 0.909493 0.272649 0.129562
277 1 0.96976 0.460038 0.0919707
365 1 0.841964 0.42339 0.0920747
285 1 0.96102 0.429795 0.094139
239 1 0.240948 0.533853 0.0959975
37 2 0.114283 0.562836 0.0212579
44 2 0.0763036 0.572482 0.146232
313 1 0.171884 0.729816 0.0996433
315 1 0.259257 0.528828 0.109885
39 2 0.488788 0.53647 0.0165789
46 2 0.409849 0.546603 0.148347
207 1 0.264533 0.656063 0.0242588
241 1 0.478234 0.718723 0.0919021
311 1 0.334678 0.753021 0.0875024
212 1 0.267055 0.664326 0.166613
77 2 0.71349 0.556376 0.00293466
84 2 0.738984 0.54819 0.145259
145 1 0.592288 0.678852 0.0307378
279 1 0.589701 0.526166 0.0980118
343 1 0.725678 0.695834 0.0906198
162 1 0.591164 0.661936 0.157592
141 1 0.973316 0.669111 0.0287051
143 1 0.86375 0.575923 0.0672016
158 1 0.887234 0.726879 0.109809
113 1 0.145 0.982637 0.0400253
253 1 0.0491352 0.752634 0.0993407
151 1 0.00406368 0.984487 0.0803346
243 1 0.0989463 0.850101 0.0946696
41 2 0.292819 0.897997 0.0227267
48 2 0.254202 0.875541 0.150899
155 1 0.442442 0.982545 0.0639259
249 1 0.417519 0.826647 0.0925292
3 2 0.559895 0.860264 0.0280767
10 2 0.591167 0.851503 0.158737
115 1 0.695484 0.98225 0.119825
116 1 0.707521 0.940398 0.0173676
331 1 0.783767 0.844123 0.0934035
225 1 0.762056 0.828505 0.0981942
5 2 0.934965 0.844864 0.0289221
12 2 0.926897 0.889334 0.162551
111 1 0.841049 0.979503 0.0752795
11 2 0.0822948 0.159815 0.176681
30 2 0.0678121 0.165892 0.304024
229 1 0.242676 0.178384 0.248003
123 1 0.22914 0.0830049 0.333515
9 2 0.4085 0.131101 0.194767
28 2 0.417426 0.149101 0.323037
117 1 0.230117 0.0444492 0.198366
121 1 0.35227 0.0130307 0.26965
47 2 0.752825 0.139688 0.180267
66 2 0.732282 0.0788385 0.312256
254 1 0.582328 0.12993 0.242818
173 1 0.571162 0.021623 0.3212
247 1 0.910771 0.16074 0.234699
189 1 0.914576 0.0464773 0.327534
159 1 0.05596 0.405 0.242811
336 1 0.1679 0.28494 0.240036
83 2 0.228836 0.438027 0.194236
167 1 0.112155 0.363641 0.331422
102 2 0.25604 0.463636 0.31977
283 1 0.407749 0.449078 0.252701
346 1 0.325276 0.291991 0.249272
246 1 0.49235 0.285942 0.249889
45 2 0.573095 0.435654 0.188267
64 2 0.57522 0.439482 0.311277
317 1 0.67439 0.279898 0.240426
319 1 0.732226 0.445503 0.241414
218 1 0.742912 0.348272 0.323899
43 2 0.903481 0.462404 0.193888
62 2 0.935924 0.423973 0.317365
256 1 0.946225 0.281133 0.23975
318 1 0.835776 0.303329 0.235782
290 1 0.13345 0.565945 0.25871
282 1 0.0281242 0.571728 0.256138
371 1 0.188004 0.595415 0.24755
79 2 0.420269 0.747037 0.192564
292 1 0.499765 0.597092 0.248564
372 1 0.341234 0.597035 0.253767
255 1 0.666633 0.587593 0.247453
7 2 0.765982 0.740873 0.192663
26 2 0.770436 0.730837 0.325015
157 1 0.926209 0.680135 0.203268
245 1 0.831627 0.579839 0.253924
195 1 0.991708 0.70614 0.295988
81 2 0.0976732 0.759409 0.203394
100 2 0.129804 0.790955 0.33278
166 1 0.0227994 0.024841 0.239336
291 1 0.161054 0.91919 0.251776
335 1 0.0019043 0.876576 0.266265
174 1 0.0849897 0.985895 0.34034
98 2 0.408362 0.756687 0.321667
373 1 0.264052 0.772836 0.251792
164 1 0.412738 0.955071 0.173501
281 1 0.329028 0.865048 0.249902
337 1 0.595338 0.743074 0.249278
120 1 0.659073 0.992474 0.222805
227 1 0.681975 0.849606 0.258062
345 1 0.494233 0.902434 0.259727
344 1 0.887199 0.818139 0.261919