LAMMPS (20 Nov 2019)
#---------------------------------------------------------------------#
#---------- Simulation of Co1Ta2 in triclinic (P1) ----#
#-------------------- Writer:: Your Name ----------------------------#
#-------------------- Temperature: 300 Kelvin -----------------------#
#---------------------------------------------------------------------#

#---------------------Define initial value
variable              Temperature equal 300     # 300 K
variable              Pressure    equal 1.01325 # 1.01325 bar
variable              Timestep    equal 0.001   # 0.001 ps=1 fs::Ref[1]

#-----------------------------------------------------------#
#----------------------Initialization-----------------------#
#-----------------------------------------------------------#

#----------------------Define units, atom_style, dimension and boundary
echo                   both
units                  metal
dimension              3
boundary               p p p
atom_style             full

#----------------------Define neighbor Algorithm and neighbor list
neighbor               2.0 bin
neigh_modify           delay 0 every 1 check yes
read_data              Co2Ta(C14).data
  orthogonal box = (-3.673 -1.01785 -0.01) to (10.927 13.5821 23.59)
  1 by 1 by 1 MPI processor grid
  reading atoms ...
  382 atoms
  scanning bonds ...
  2 = max bonds/atom
  reading bonds ...
  162 bonds
  2 = max # of 1-2 neighbors
  2 = max # of 1-3 neighbors
  4 = max # of 1-4 neighbors
  2 = max # of special neighbors
  special bonds CPU = 0.000145385 secs
  read_data CPU = 0.00142023 secs

#----------------------Define groups for simulation
group                  Co  type 1
274 atoms in group Co
group                  Ta  type 2
108 atoms in group Ta

#-----------------------------------------------------------------------------------#
#----------------------Setup interaction potentials between ions--------------------#
#-----------------------------------------------------------------------------------#

pair_style             meam
pair_coeff             * * library.meam Co Ta CoTa.meam Co Ta

#--------------------------------------------------------------------------------------#
#----Setting velocity, thermostep, thermo_style, timestep and other necessary setup----#
#--------------------------------------------------------------------------------------#
#---------------------Define thermo_style order to chose thermodynamic variable for save
thermo_style          custom   step  temp   press   ke  pe  etotal

#---------------------Define simulation time step
timestep              ${Timestep} # time_step=0.001ps=1fs :Ref[1]
timestep              0.001 

#-----------------------------------------#
#-------- Minimization protocols ---------#
#-----------------------------------------#
dump                   Min all atom 100 CoTa_min.atom
min_style              cg
thermo 1  # Print every step during minimization
minimize               1e-25 1e-25 10000 10000
WARNING: Using a manybody potential with bonds/angles/dihedrals and special_bond exclusions (src/pair.cpp:226)
WARNING: Bonds are defined but no bond style is set (src/force.cpp:205)
WARNING: Likewise 1-2 special neighbor interactions != 1.0 (src/force.cpp:207)
Neighbor list info ...
  update every 1 steps, delay 0 steps, check yes
  max neighbors/atom: 2000, page size: 100000
  master list distance cutoff = 7
  ghost atom cutoff = 7
  binsize = 3.5, bins = 5 5 7
  2 neighbor lists, perpetual/occasional/extra = 2 0 0
  (1) pair meam, perpetual
      attributes: full, newton on
      pair build: full/bin
      stencil: full/bin/3d
      bin: standard
  (2) pair meam, perpetual, half/full from (1)
      attributes: half, newton on
      pair build: halffull/newton
      stencil: none
      bin: none
Per MPI rank memory allocation (min/avg/max) = 14.24 | 14.24 | 14.24 Mbytes
Step Temp Press KinEng PotEng TotEng 
       0            0    555113.81            0    18013.122    18013.122 
       1            0    1039339.2            0    10696.472    10696.472 
       2            0    1183811.8            0    8384.4577    8384.4577 
       3            0    1167386.4            0    6407.2419    6407.2419 
       4            0    1143420.2            0    4738.1354    4738.1354 
       5            0    1065537.3            0    3181.1646    3181.1646 
       6            0    961500.98            0    1678.8044    1678.8044 
       7            0    826931.32            0    405.44012    405.44012 
       8            0    688955.97            0   -490.85519   -490.85519 
       9            0    574384.96            0   -1039.5589   -1039.5589 
      10            0    486713.95            0    -1363.289    -1363.289 
      11            0    424648.46            0   -1540.8066   -1540.8066 
      12            0    379457.02            0   -1639.2987   -1639.2987 
      13            0    343011.71            0   -1702.8032   -1702.8032 
      14            0    311435.37            0   -1750.7885   -1750.7885 
      15            0    284428.21            0   -1786.4626   -1786.4626 
      16            0    261071.61            0   -1812.3293   -1812.3293 
      17            0     240223.9            0   -1832.1331   -1832.1331 
      18            0    221414.38            0   -1848.4391   -1848.4391 
      19            0     205994.6            0    -1861.543    -1861.543 
      20            0    194425.77            0   -1871.5427   -1871.5427 
      21            0    185576.69            0   -1879.3693   -1879.3693 
      22            0    179000.02            0   -1884.4862   -1884.4862 
      23            0    175405.62            0   -1887.3194   -1887.3194 
      24            0    172283.14            0   -1890.5721   -1890.5721 
      25            0    171505.35            0   -1892.0963   -1892.0963 
      26            0     169367.7            0   -1894.2835   -1894.2835 
      27            0    168626.44            0   -1895.6167   -1895.6167 
      28            0    166679.39            0   -1897.3216   -1897.3216 
      29            0    164318.87            0   -1900.1631   -1900.1631 
      30            0    160415.79            0   -1904.5459   -1904.5459 
      31            0    157950.43            0    -1907.499    -1907.499 
      32            0    155073.55            0   -1910.4604   -1910.4604 
      33            0    153448.51            0   -1911.5717   -1911.5717 
      34            0     150256.4            0   -1913.1245   -1913.1245 
      35            0    149993.49            0   -1913.4638   -1913.4638 
      36            0    149971.51            0   -1914.5844   -1914.5844 
      37            0    149739.82            0   -1914.9744   -1914.9744 
      38            0    147155.89            0   -1915.1507   -1915.1507 
      39            0    145632.17            0   -1917.8687   -1917.8687 
      40            0    143302.25            0    -1918.397    -1918.397 
      41            0    141985.69            0   -1919.8581   -1919.8581 
      42            0    141861.21            0    -1921.188    -1921.188 
      43            0    140783.36            0   -1921.5683   -1921.5683 
      44            0    139185.28            0   -1922.3404   -1922.3404 
      45            0    137239.76            0   -1923.5802   -1923.5802 
      46            0    136459.89            0   -1924.4296   -1924.4296 
      47            0    136064.98            0   -1924.9183   -1924.9183 
      48            0     135134.7            0   -1925.4998   -1925.4998 
      49            0    133886.43            0   -1925.9211   -1925.9211 
      50            0     132973.9            0   -1926.0773   -1926.0773 
      51            0    131721.17            0    -1926.268    -1926.268 
      52            0    131309.71            0   -1926.8172   -1926.8172 
      53            0    129727.54            0   -1928.1018   -1928.1018 
      54            0    129447.34            0   -1928.7269   -1928.7269 
      55            0    129241.63            0   -1929.3398   -1929.3398 
      56            0    128099.39            0   -1930.3453   -1930.3453 
      57            0    128198.09            0   -1930.7786   -1930.7786 
      58            0    128436.28            0   -1931.0197   -1931.0197 
      59            0    128024.83            0   -1931.3799   -1931.3799 
      60            0    127989.39            0   -1931.4454   -1931.4454 
      61            0    127679.65            0    -1932.171    -1932.171 
      62            0    127673.32            0   -1932.2252   -1932.2252 
      63            0    127699.88            0   -1932.2625   -1932.2625 
      64            0    127761.53            0   -1932.3747   -1932.3747 
      65            0    127828.61            0   -1932.3994   -1932.3994 
      66            0    127904.04            0   -1932.6137   -1932.6137 
      67            0    127850.48            0   -1932.6284   -1932.6284 
      68            0    127868.72            0    -1932.684    -1932.684 
      69            0    126627.98            0   -1932.9806   -1932.9806 
      70            0    126391.01            0   -1933.3057   -1933.3057 
      71            0    126533.24            0   -1933.4199   -1933.4199 
      72            0    126507.89            0   -1933.8145   -1933.8145 
      73            0    126703.61            0   -1933.9412   -1933.9412 
      74            0    126875.08            0   -1934.0432   -1934.0432 
      75            0    126947.89            0    -1934.075    -1934.075 
      76            0    126917.49            0   -1934.1157   -1934.1157 
      77            0    126529.57            0   -1934.2621   -1934.2621 
      78            0    126081.75            0   -1934.4562   -1934.4562 
      79            0    125919.44            0   -1934.4942   -1934.4942 
      80            0    125993.68            0   -1934.5262   -1934.5262 
      81            0    126307.59            0   -1934.6313   -1934.6313 
      82            0    126318.94            0    -1934.648    -1934.648 
      83            0    126300.18            0   -1934.6747   -1934.6747 
      84            0    126176.39            0    -1934.718    -1934.718 
      85            0    126021.93            0   -1934.7662   -1934.7662 
      86            0    125731.81            0   -1934.8015   -1934.8015 
      87            0    125551.51            0   -1934.9181   -1934.9181 
      88            0    125089.36            0   -1935.1775   -1935.1775 
      89            0    124894.47            0   -1935.3525   -1935.3525 
      90            0    124708.44            0   -1935.4579   -1935.4579 
      91            0    123864.97            0   -1935.9401   -1935.9401 
      92            0    123699.11            0   -1935.9754   -1935.9754 
      93            0    124235.32            0   -1936.2084   -1936.2084 
      94            0    124500.45            0   -1936.2868   -1936.2868 
      95            0    124532.29            0   -1936.4305   -1936.4305 
      96            0    124606.73            0   -1936.5239   -1936.5239 
      97            0    124763.02            0   -1936.6742   -1936.6742 
      98            0    124793.17            0   -1936.6863   -1936.6863 
      99            0    124983.19            0   -1936.7211   -1936.7211 
     100            0    125028.49            0   -1936.7323   -1936.7323 
     101            0     125042.7            0   -1936.7698   -1936.7698 
     102            0    125123.85            0   -1936.7928   -1936.7928 
     103            0    125156.19            0   -1936.8092   -1936.8092 
     104            0    125157.03            0   -1936.8094   -1936.8094 
     105            0    125166.94            0   -1936.8117   -1936.8117 
     106            0    125176.27            0   -1936.8149   -1936.8149 
     107            0    125173.09            0   -1936.8214   -1936.8214 
     108            0    125173.29            0   -1936.8398   -1936.8398 
     109            0    125026.84            0   -1936.8633   -1936.8633 
     110            0    124930.27            0   -1936.8786   -1936.8786 
     111            0    124850.03            0    -1936.911    -1936.911 
     112            0    124838.98            0   -1936.9629   -1936.9629 
     113            0    124853.43            0   -1936.9701   -1936.9701 
     114            0    124898.24            0    -1936.981    -1936.981 
     115            0    124913.24            0   -1936.9866   -1936.9866 
     116            0    124873.43            0   -1937.0019   -1937.0019 
     117            0    124916.79            0   -1937.0166   -1937.0166 
     118            0    124942.75            0   -1937.0299   -1937.0299 
     119            0    124941.58            0   -1937.0372   -1937.0372 
     120            0    124935.69            0   -1937.0391   -1937.0391 
     121            0    124912.86            0   -1937.0427   -1937.0427 
     122            0    124905.84            0    -1937.046    -1937.046 
     123            0    124852.89            0   -1937.0666   -1937.0666 
     124            0    124746.23            0   -1937.0816   -1937.0816 
     125            0    124349.14            0   -1937.1201   -1937.1201 
     126            0    124311.44            0   -1937.1737   -1937.1737 
     127            0    124311.12            0   -1937.2244   -1937.2244 
     128            0    122979.38            0   -1937.4062   -1937.4062 
     129            0    122894.76            0   -1937.4446   -1937.4446 
     130            0    121074.05            0   -1937.8129   -1937.8129 
     131            0     121068.8            0   -1937.8174   -1937.8174 
     132            0    121522.59            0     -1937.97     -1937.97 
     133            0    121639.85            0   -1938.0477   -1938.0477 
     134            0    121747.53            0   -1938.0942   -1938.0942 
     135            0    121785.78            0   -1938.1073   -1938.1073 
     136            0    121831.82            0   -1938.1207   -1938.1207 
     137            0    121858.84            0   -1938.1308   -1938.1308 
     138            0    121882.73            0   -1938.1383   -1938.1383 
     139            0    121886.59            0   -1938.1461   -1938.1461 
     140            0    121919.84            0   -1938.1636   -1938.1636 
     141            0    121816.92            0   -1938.2062   -1938.2062 
     142            0    121744.33            0   -1938.2303   -1938.2303 
     143            0    121788.67            0   -1938.2423   -1938.2423 
     144            0    121837.86            0    -1938.277    -1938.277 
     145            0    121833.29            0   -1938.2884   -1938.2884 
     146            0     121820.4            0   -1938.2982   -1938.2982 
     147            0    121821.48            0   -1938.3025   -1938.3025 
     148            0    121834.34            0   -1938.3114   -1938.3114 
     149            0    121832.02            0   -1938.3144   -1938.3144 
     150            0    121831.95            0   -1938.3149   -1938.3149 
     151            0    121831.64            0   -1938.3156   -1938.3156 
     152            0    121827.59            0   -1938.3182   -1938.3182 
     153            0    121817.93            0   -1938.3275   -1938.3275 
     154            0    121708.95            0   -1938.3494   -1938.3494 
     155            0    121051.89            0   -1938.6811   -1938.6811 
     156            0    121478.65            0   -1938.8539   -1938.8539 
     157            0    121505.23            0   -1938.8625   -1938.8625 
     158            0    121535.95            0   -1938.9642   -1938.9642 
     159            0    121646.62            0     -1939.13     -1939.13 
     160            0    121619.68            0   -1939.1367   -1939.1367 
     161            0     121724.7            0   -1939.1905   -1939.1905 
     162            0    121752.92            0   -1939.1937   -1939.1937 
     163            0    121792.15            0   -1939.2172   -1939.2172 
     164            0    121781.44            0   -1939.2186   -1939.2186 
     165            0    121852.29            0   -1939.2336   -1939.2336 
     166            0    121842.75            0   -1939.2347   -1939.2347 
     167            0    121896.86            0   -1939.2883   -1939.2883 
     168            0    121879.68            0    -1939.296    -1939.296 
     169            0    121864.95            0   -1939.2985   -1939.2985 
     170            0    121924.04            0   -1939.3152   -1939.3152 
     171            0    121923.92            0   -1939.3155   -1939.3155 
     172            0    121915.92            0   -1939.3169   -1939.3169 
     173            0    121929.05            0   -1939.3175   -1939.3175 
     174            0    121926.56            0   -1939.3177   -1939.3177 
     175            0    121949.15            0   -1939.3191   -1939.3191 
     176            0    121955.19            0   -1939.3206   -1939.3206 
     177            0    121944.81            0   -1939.3219   -1939.3219 
     178            0    121936.22            0   -1939.3223   -1939.3223 
     179            0    121944.59            0   -1939.3236   -1939.3236 
     180            0    121941.69            0   -1939.3241   -1939.3241 
     181            0    121941.46            0   -1939.3241   -1939.3241 
     182            0    121939.59            0   -1939.3242   -1939.3242 
     183            0    121685.22            0   -1939.3354   -1939.3354 
     184            0    121771.16            0   -1939.3655   -1939.3655 
     185            0    121729.14            0   -1939.4293   -1939.4293 
     186            0    121968.32            0   -1939.4913   -1939.4913 
     187            0    121858.79            0   -1939.5616   -1939.5616 
     188            0    122010.46            0   -1939.6243   -1939.6243 
     189            0    122271.37            0   -1939.6899   -1939.6899 
     190            0    122287.24            0   -1939.6917   -1939.6917 
     191            0    122277.94            0   -1939.6928   -1939.6928 
     192            0    122284.36            0   -1939.6945   -1939.6945 
     193            0    122299.61            0    -1939.695    -1939.695 
     194            0    122312.44            0   -1939.6954   -1939.6954 
     195            0     122307.1            0   -1939.6998   -1939.6998 
     196            0    122329.04            0   -1939.7033   -1939.7033 
     197            0    122325.76            0   -1939.7054   -1939.7054 
     198            0    122326.63            0   -1939.7063   -1939.7063 
     199            0    122323.13            0   -1939.7095   -1939.7095 
     200            0    122325.33            0   -1939.7099   -1939.7099 
     201            0    122331.67            0   -1939.7104   -1939.7104 
     202            0    122321.51            0   -1939.7117   -1939.7117 
     203            0    122326.33            0   -1939.7122   -1939.7122 
     204            0    122334.88            0   -1939.7124   -1939.7124 
     205            0    122338.08            0   -1939.7124   -1939.7124 
     206            0    122331.79            0   -1939.7131   -1939.7131 
     207            0    122331.65            0   -1939.7131   -1939.7131 
     208            0    122331.58            0   -1939.7131   -1939.7131 
     209            0    122331.53            0   -1939.7131   -1939.7131 
     210            0     122331.5            0   -1939.7131   -1939.7131 
     211            0    122331.48            0   -1939.7131   -1939.7131 
     212            0    122331.47            0   -1939.7131   -1939.7131 
     213            0    122331.46            0   -1939.7131   -1939.7131 
     214            0    122331.45            0   -1939.7131   -1939.7131 
     215            0    122331.44            0   -1939.7131   -1939.7131 
     216            0    122331.44            0   -1939.7131   -1939.7131 
     217            0    122331.44            0   -1939.7131   -1939.7131 
     218            0    122331.44            0   -1939.7131   -1939.7131 
     219            0    122331.43            0   -1939.7131   -1939.7131 
     220            0    122331.43            0   -1939.7131   -1939.7131 
     221            0    122331.43            0   -1939.7131   -1939.7131 
     222            0    122331.43            0   -1939.7131   -1939.7131 
     223            0    122331.43            0   -1939.7131   -1939.7131 
     224            0    122331.43            0   -1939.7131   -1939.7131 
     225            0    122331.43            0   -1939.7131   -1939.7131 
     226            0    122331.43            0   -1939.7131   -1939.7131 
     227            0    122331.43            0   -1939.7131   -1939.7131 
     228            0    122331.43            0   -1939.7131   -1939.7131 
     229            0    122331.43            0   -1939.7131   -1939.7131 
     230            0    122331.43            0   -1939.7131   -1939.7131 
     231            0    122331.43            0   -1939.7131   -1939.7131 
     232            0    122331.43            0   -1939.7131   -1939.7131 
     233            0    122331.43            0   -1939.7131   -1939.7131 
     234            0    122331.43            0   -1939.7131   -1939.7131 
     235            0    122331.43            0   -1939.7131   -1939.7131 
     236            0    122331.43            0   -1939.7131   -1939.7131 
     237            0    122331.43            0   -1939.7131   -1939.7131 
     238            0    122331.43            0   -1939.7131   -1939.7131 
     239            0    122331.43            0   -1939.7131   -1939.7131 
     240            0    122331.43            0   -1939.7131   -1939.7131 
     241            0    122331.43            0   -1939.7131   -1939.7131 
     242            0    122331.43            0   -1939.7131   -1939.7131 
     243            0    122331.43            0   -1939.7131   -1939.7131 
     244            0    122331.43            0   -1939.7131   -1939.7131 
     245            0    122331.43            0   -1939.7131   -1939.7131 
     246            0    122331.43            0   -1939.7131   -1939.7131 
     247            0    122331.43            0   -1939.7131   -1939.7131 
     248            0    122331.43            0   -1939.7131   -1939.7131 
     249            0    122331.43            0   -1939.7131   -1939.7131 
     250            0    122331.43            0   -1939.7131   -1939.7131 
     251            0    122331.43            0   -1939.7131   -1939.7131 
     252            0    122331.43            0   -1939.7131   -1939.7131 
     253            0    122331.43            0   -1939.7131   -1939.7131 
     254            0    122331.43            0   -1939.7131   -1939.7131 
Loop time of 18.824 on 1 procs for 254 steps with 382 atoms

100.0% CPU use with 1 MPI tasks x no OpenMP threads

Minimization stats:
  Stopping criterion = energy tolerance
  Energy initial, next-to-last, final = 
         18013.1224708     -1939.71309014     -1939.71309014
  Force two-norm initial, final = 11907.2 7.46493
  Force max component initial, final = 1481.39 2.86102
  Final line search alpha, max atom move = 1.70667e-05 4.88281e-05
  Iterations, force evaluations = 254 2691

MPI task timing breakdown:
Section |  min time  |  avg time  |  max time  |%varavg| %total
---------------------------------------------------------------
Pair    | 18.775     | 18.775     | 18.775     |   0.0 | 99.74
Bond    | 0.00046382 | 0.00046382 | 0.00046382 |   0.0 |  0.00
Neigh   | 0.0045556  | 0.0045556  | 0.0045556  |   0.0 |  0.02
Comm    | 0.016715   | 0.016715   | 0.016715   |   0.0 |  0.09
Output  | 0.0092466  | 0.0092466  | 0.0092466  |   0.0 |  0.05
Modify  | 0          | 0          | 0          |   0.0 |  0.00
Other   |            | 0.0184     |            |       |  0.10

Nlocal:    382 ave 382 max 382 min
Histogram: 1 0 0 0 0 0 0 0 0 0
Nghost:    1982 ave 1982 max 1982 min
Histogram: 1 0 0 0 0 0 0 0 0 0
Neighs:    20643 ave 20643 max 20643 min
Histogram: 1 0 0 0 0 0 0 0 0 0
FullNghs:  41286 ave 41286 max 41286 min
Histogram: 1 0 0 0 0 0 0 0 0 0

Total # of neighbors = 41286
Ave neighs/atom = 108.079
Ave special neighs/atom = 0.848168
Neighbor list builds = 3
Dangerous builds = 0
undump                 Min
reset_timestep	       0

#-------------------------------------------------------------#
#---- Dynamic stage: Calculation enthalpy in NVT ensemble ----#
#-------------------------------------------------------------#

#---------------------Set canonical ensemble(NVT) in T=${Temperature}
fix                   NVT_Equilibrium_Final all nvt temp ${Temperature} ${Temperature} 0.1
fix                   NVT_Equilibrium_Final all nvt temp 300 ${Temperature} 0.1
fix                   NVT_Equilibrium_Final all nvt temp 300 300 0.1

#---------------------Save the trajectories with dump command in Equilibrium stage
dump                  Equilibrium.NVT.Final all atom 100 Equilibrium.NVT.Final.atom

#-----------------------------------------------------#
#-------------- Calculation enthalpy -----------------#
#-----------------------------------------------------#

#---------------------Calculation potentials energy per atoms
compute               Potentials_energy_per_atoms_vector all pe/atom
variable              PD atom c_Potentials_energy_per_atoms_vector            # PD= Potentials_energy_per_atoms_vector for dump
compute               Potentials_energy all reduce sum c_Potentials_energy_per_atoms_vector
variable              N equal "count(all)"
variable              N1 equal count(Co)
variable              N2 equal count(Ta)
variable              n equal 1        # Co_nTa_m
variable              m equal 2
compute               ECo Co pe/atom
compute               ETa Ta pe/atom
compute               E1 Co reduce sum c_ECo
compute               E2 Ta reduce sum c_ETa
variable              Potentials_energy_per_atoms_scaller equal "c_Potentials_energy/v_N"
variable              Totenergy equal etotal                               #Kinetic+Potentials

#---------------------Calculation Temperature
compute               TEMPERATURE all   temp
variable              TEMPERATURE equal "c_TEMPERATURE"

#---------------------Calculation formation Energy and heat of formation
variable              lengtha equal "lx/3"
variable              lengthc equal "lz/3"
variable              EcCo equal -3.7  	 #Cohesive energy of Co
variable              EcTa equal -8.1           #Cohesive energy of Ta
variable              Etot equal v_Totenergy/v_N
variable              formation_energy equal -(v_Etot-v_n*v_EcCo-v_m*v_EcTa)/(22*(v_n+v_m))
variable              heat_formation equal (v_Etot*v_N-v_N1*c_E1-v_N2*c_E2)/(v_N)
thermo_style          custom step temp press etotal v_Etot c_E1 c_E2 v_formation_energy v_heat_formation v_lengtha v_lengthc
thermo 1  # Print every step during dynamics

#---------------------Dynamic run
run                   10000 # 1 ps
WARNING: Using a manybody potential with bonds/angles/dihedrals and special_bond exclusions (src/pair.cpp:226)
WARNING: Bonds are defined but no bond style is set (src/force.cpp:205)
WARNING: Likewise 1-2 special neighbor interactions != 1.0 (src/force.cpp:207)
Per MPI rank memory allocation (min/avg/max) = 13.11 | 13.11 | 13.11 Mbytes
Step Temp Press TotEng v_Etot c_E1 c_E2 v_formation_energy v_heat_formation v_lengtha v_lengthc 
       0            0    121617.53   -1937.8602   -5.0729324    -973.4531   -964.40708  -0.22465254    965.82266    4.8666667    7.8666667 
       1    11.561956     121377.1   -1937.2167   -5.0712479   -973.57435   -964.21175  -0.22467806    965.85608    4.8666667    7.8666667 
       2     48.88239    121327.47   -1934.6703    -5.064582   -973.28994   -963.78776  -0.22477906    965.53888    4.8666667    7.8666667 
       3    49.045183    121366.71   -1934.6702   -5.0645817   -973.29864   -963.78694  -0.22477907    965.54489    4.8666667    7.8666667 
       4    49.129728    121407.63   -1934.6685   -5.0645773   -973.30379   -963.78427  -0.22477913    965.54783    4.8666667    7.8666667 
       5     49.02745    121608.73   -1934.7064   -5.0646765    -973.3363   -963.78463  -0.22477763    965.57115    4.8666667    7.8666667 
       6    47.937117    121736.13    -1934.647   -5.0645209    -973.2193   -963.78849  -0.22477999    965.48847    4.8666667    7.8666667 
       7    47.405898    121778.29   -1934.6503   -5.0645296   -973.19256   -963.79238  -0.22477986    965.47039    4.8666667    7.8666667 
       8    47.767506    121988.79   -1934.6537   -5.0645385   -973.21365   -963.79252  -0.22477972    965.48555    4.8666667    7.8666667 
       9    47.959585     122302.7   -1934.6264    -5.064467       -973.2   -963.78832   -0.2247808    965.47464    4.8666667    7.8666667 
      10    48.852241    122368.75    -1934.624   -5.0644606   -973.24797   -963.78186   -0.2247809    965.50723    4.8666667    7.8666667 
      11    50.347251    122195.66   -1934.6258   -5.0644655   -973.33091   -963.77443  -0.22478083    965.56461    4.8666667    7.8666667 
      12    49.968003    122182.15    -1934.614   -5.0644346   -973.31085     -963.764  -0.22478129    965.54731    4.8666667    7.8666667 
      13    49.301187    122234.32   -1934.6065   -5.0644148   -973.28336   -963.75109  -0.22478159    965.52396    4.8666667    7.8666667 
      14    48.901625    122302.72   -1934.6017   -5.0644023   -973.27055   -963.73942  -0.22478178    965.51149    4.8666667    7.8666667 
      15    48.772226    122380.28   -1934.5967   -5.0643893   -973.26734    -963.7313  -0.22478198     965.5069    4.8666667    7.8666667 
      16    48.736523    122462.19   -1934.5911   -5.0643747   -973.26582   -963.72549   -0.2247822    965.50418    4.8666667    7.8666667 
      17    48.657124    122540.64   -1934.5847   -5.0643578   -973.26287   -963.71809  -0.22478246    965.49999    4.8666667    7.8666667 
      18    48.498159    122609.25   -1934.5777   -5.0643396   -973.26021   -963.70596  -0.22478273    965.49467    4.8666667    7.8666667 
      19    48.288392    122670.96   -1934.5705   -5.0643207   -973.25825   -963.69038  -0.22478302    965.48887    4.8666667    7.8666667 
      20    48.057901    122727.83   -1934.5631   -5.0643014   -973.25734   -963.67255  -0.22478331     965.4832    4.8666667    7.8666667 
      21    47.810859    122776.77   -1934.5556   -5.0642817   -973.25867   -963.65151  -0.22478361    965.47823    4.8666667    7.8666667 
      22    47.551043    122820.57   -1934.5475   -5.0642605   -973.26021   -963.62908  -0.22478393    965.47301    4.8666667    7.8666667 
      23    47.314559    122865.52   -1934.5395   -5.0642395   -973.26112    -963.6085  -0.22478425    965.46787    4.8666667    7.8666667 
      24    47.155874    122923.06    -1934.531   -5.0642172    -973.2586   -963.59469  -0.22478459    965.46218    4.8666667    7.8666667 
      25    47.120005    122993.99   -1934.5229   -5.0641962   -973.25534   -963.58816  -0.22478491    965.45802    4.8666667    7.8666667 
      26    47.210353    123072.71   -1934.5147   -5.0641746   -973.25325   -963.58645  -0.22478523    965.45605    4.8666667    7.8666667 
      27    47.428383    123150.87   -1934.5061   -5.0641522   -973.25522   -963.58667  -0.22478557    965.45755    4.8666667    7.8666667 
      28    47.826948    123227.07   -1934.4975   -5.0641295   -973.26277   -963.59009  -0.22478592    965.46396    4.8666667    7.8666667 
      29    48.504526    123295.94   -1934.4873   -5.0641028   -973.28031   -963.59571  -0.22478632    965.47815    4.8666667    7.8666667 
      30     53.00717    123251.54   -1934.2057   -5.0633658   -973.29922   -963.51703  -0.22479749    965.47021    4.8666667    7.8666667 
      31     68.22668    123584.02   -1933.5914   -5.0617577   -973.34282   -963.60864  -0.22482185    965.52899    4.8666667    7.8666667 
      32    69.857896    123557.86   -1933.5152   -5.0615582   -973.38964   -963.56596  -0.22482488     965.5507    4.8666667    7.8666667 
      33    71.813115     123411.7   -1933.3143   -5.0610322   -973.42874   -963.42222  -0.22483285    965.53864    4.8666667    7.8666667 
      34    77.631581    123614.24   -1933.1847   -5.0606928   -973.49283   -963.51503  -0.22483799    965.61119    4.8666667    7.8666667 
      35    83.631262    123793.79    -1933.041   -5.0603168   -973.54971      -963.61  -0.22484368    965.67921    4.8666667    7.8666667 
      36    86.435144    124361.68   -1933.2016   -5.0607372   -973.61217    -963.8462  -0.22483732    965.79038    4.8666667    7.8666667 
      37     87.99617    124072.26   -1932.9593   -5.0601028   -973.58049   -963.71241  -0.22484693    965.73046    4.8666667    7.8666667 
      38    89.466194    124343.72   -1933.0511   -5.0603432   -973.57967   -963.87747  -0.22484329    965.77629    4.8666667    7.8666667 
      39    90.876276    124422.07   -1933.0562   -5.0603566   -973.61775   -963.91395  -0.22484308    965.81391    4.8666667    7.8666667 
      40    92.111549     124480.1   -1933.0251    -5.060275    -973.6333   -963.92807  -0.22484432    965.82914    4.8666667    7.8666667 
      41    93.215903    124424.72   -1932.9715   -5.0601348    -973.6878    -963.8744  -0.22484644     965.8532    4.8666667    7.8666667 
      42    94.412953    124610.21   -1933.0263   -5.0602782   -973.68855    -963.9874  -0.22484427    965.88554    4.8666667    7.8666667 
      43    95.338979    124650.46   -1933.0201   -5.0602621   -973.71605   -963.99934  -0.22484451    965.90865    4.8666667    7.8666667 
      44    96.207426    124560.63   -1932.9665   -5.0601216   -973.77557   -963.92893  -0.22484664    965.93158    4.8666667    7.8666667 
      45    97.396945    124706.93   -1932.9769   -5.0601489   -973.77143   -964.00208  -0.22484623    965.94926    4.8666667    7.8666667 
      46    98.491908    124802.46   -1932.9763   -5.0601475   -973.78004   -964.04685  -0.22484625     965.9681    4.8666667    7.8666667 
      47    99.343499    124778.12   -1932.9414   -5.0600559   -973.82484     -964.009  -0.22484764    965.98962    4.8666667    7.8666667 
      48    100.53152     124892.2   -1932.9457   -5.0600674    -973.8141   -964.08263  -0.22484746    966.00273    4.8666667    7.8666667 
      49    101.42801    124983.42   -1932.9059   -5.0599631   -973.84047   -964.06057  -0.22484904    966.01551    4.8666667    7.8666667 
      50    103.23335    124778.25   -1932.8406   -5.0597922   -973.83731   -964.08737  -0.22485163    966.02099    4.8666667    7.8666667 
      51    104.01556    124764.35   -1932.8234   -5.0597471   -973.87124    -964.0747  -0.22485232    966.04179    4.8666667    7.8666667 
      52    106.91101    124850.71   -1932.7416    -5.059533   -973.88903   -964.11773  -0.22485556    966.06693    4.8666667    7.8666667 
      53    111.75751    124875.67   -1932.4786   -5.0588444   -973.90142     -964.081  -0.22486599    966.06612    4.8666667    7.8666667 
      54    112.76504    124923.64   -1932.4676   -5.0588158   -973.92273   -964.09836  -0.22486643    966.08634    4.8666667    7.8666667 
      55    113.36922    124899.92   -1932.4519   -5.0587747   -973.96264   -964.07252  -0.22486705    966.10771    4.8666667    7.8666667 
      56    114.92712    124746.27    -1932.294   -5.0583614   -974.00135   -963.95264  -0.22487331    966.10199    4.8666667    7.8666667 
      57    116.65867       124291   -1931.5789   -5.0564892   -973.79367   -963.53041  -0.22490168    965.83553    4.8666667    7.8666667 
      58    120.53649     124405.9   -1931.5075   -5.0563023   -973.85444   -963.58923  -0.22490451    965.89593    4.8666667    7.8666667 
      59    132.27262    124314.36   -1930.8963   -5.0547022   -973.95975   -963.45069  -0.22492875     965.9339    4.8666667    7.8666667 
      60    133.10509    124296.07   -1930.8702    -5.054634   -974.00556   -963.41981  -0.22492979    965.95809    4.8666667    7.8666667 
      61    137.20718    124447.17   -1930.8113   -5.0544799   -974.07553   -963.49297  -0.22493212    966.02912    4.8666667    7.8666667 
      62     137.8815    124557.54   -1930.7009   -5.0541909   -973.99412    -963.4972   -0.2249365    965.97221    4.8666667    7.8666667 
      63    137.62377    124535.32   -1930.6954   -5.0541764   -974.01153   -963.46156  -0.22493672    965.97464    4.8666667    7.8666667 
      64    145.08559    125033.63   -1930.7967   -5.0544417   -974.14935   -963.79259   -0.2249327    966.16682    4.8666667    7.8666667 
      65    145.35243    124815.02   -1930.4798   -5.0536121   -974.06342   -963.57475  -0.22494527    966.04442    4.8666667    7.8666667 
      66    141.70184    124689.52    -1930.486   -5.0536283    -974.0133   -963.45125  -0.22494503    965.97354    4.8666667    7.8666667 
      67    143.14661    124771.81   -1930.4665   -5.0535773   -974.03872   -963.47751   -0.2249458    965.99925    4.8666667    7.8666667 
      68    146.80498    125005.15   -1930.4805   -5.0536138    -974.0984   -963.61193  -0.22494525    966.08002    4.8666667    7.8666667 
      69    148.57298    124994.98   -1930.4324   -5.0534881   -974.17772   -963.57167  -0.22494715    966.12566    4.8666667    7.8666667 
      70    148.90898     124997.9   -1930.4058   -5.0534182   -974.21076   -963.52848  -0.22494821    966.13722    4.8666667    7.8666667 
      71    149.75173    125133.56   -1930.3875   -5.0533704   -974.19455   -963.56794  -0.22494893     966.1368    4.8666667    7.8666667 
      72    150.28857    125263.77   -1930.3678   -5.0533189   -974.16353   -963.60572  -0.22494971    966.12529    4.8666667    7.8666667 
      73    149.93163    125236.58   -1930.3397   -5.0532453   -974.16091   -963.56266  -0.22495083     966.1113    4.8666667    7.8666667 
      74    149.33188    125195.82   -1930.3146   -5.0531797   -974.15422   -963.51473  -0.22495182    966.09302    4.8666667    7.8666667 
      75    149.22041    125236.88   -1930.2919   -5.0531201    -974.1286   -963.51209  -0.22495273    966.07395    4.8666667    7.8666667 
      76    149.67166       125307   -1930.2691   -5.0530606   -974.11213   -963.52805  -0.22495363    966.06671    4.8666667    7.8666667 
      77    150.62956    125356.17    -1930.246   -5.0530001   -974.12516   -963.53909  -0.22495454    966.07924    4.8666667    7.8666667 
      78    152.00103    125407.56   -1930.2231   -5.0529402   -974.14945   -963.55946  -0.22495545    966.10248    4.8666667    7.8666667 
      79    153.59924    125481.24   -1930.2001   -5.0528798   -974.16754     -963.597  -0.22495637    966.12613    4.8666667    7.8666667 
      80    155.24032    125543.75   -1930.1763   -5.0528175   -974.18381   -963.63776  -0.22495731    966.14938    4.8666667    7.8666667 
      81    156.79804    125575.16   -1930.1516    -5.052753   -974.20437   -963.66927  -0.22495829    966.17311    4.8666667    7.8666667 
      82    158.21476    125609.11   -1930.1256   -5.0526847   -974.21356   -963.70378  -0.22495932    966.18952    4.8666667    7.8666667 
      83    159.69061     125645.1    -1930.092   -5.0525967   -974.21613   -963.74029  -0.22496066    966.20178    4.8666667    7.8666667 
      84    161.83213    125559.83   -1929.9773   -5.0522965    -974.2636   -963.68358   -0.2249652     966.2201    4.8666667    7.8666667 
      85    164.38349    125528.53   -1929.6647   -5.0514782    -974.1426   -963.61764   -0.2249776    966.11548    4.8666667    7.8666667 
      86    164.15153    125474.88   -1929.6482   -5.0514352      -974.14   -963.59239  -0.22497826    966.10652    4.8666667    7.8666667 
      87    166.05119    125291.59   -1929.6277   -5.0513815   -974.27782   -963.52763  -0.22497907    966.18712    4.8666667    7.8666667 
      88    172.34907     125453.4   -1929.5768   -5.0512481   -974.39515   -963.66948  -0.22498109    966.31151    4.8666667    7.8666667 
      89    178.26913    125257.59   -1928.8572   -5.0493644   -974.19761   -963.43902  -0.22500963    966.10655    4.8666667    7.8666667 
      90    178.76989    125197.93    -1928.899   -5.0494739   -974.24336   -963.45975  -0.22500797    966.14512    4.8666667    7.8666667 
      91      180.999    125161.87   -1928.8696   -5.0493968   -974.29103   -963.49243  -0.22500914    966.18862    4.8666667    7.8666667 
      92    183.36052    125150.07   -1928.8407   -5.0493212   -974.32989   -963.54096  -0.22501029    966.23029    4.8666667    7.8666667 
      93    185.82022    125136.39    -1928.811   -5.0492435   -974.37173   -963.59058  -0.22501146    966.27441    4.8666667    7.8666667 
      94    188.37633     125099.2    -1928.781    -5.049165   -974.42537   -963.63284  -0.22501265    966.32491    4.8666667    7.8666667 
      95     191.0884    125048.85   -1928.7504   -5.0490848   -974.48725   -963.67389  -0.22501387    966.38098    4.8666667    7.8666667 
      96    193.96357    124980.45   -1928.7214   -5.0490089   -974.55863    -963.7151  -0.22501502    966.44391    4.8666667    7.8666667 
      97     196.7341    124841.31   -1928.6894   -5.0489252   -974.65109   -963.72714  -0.22501628    966.51371    4.8666667    7.8666667 
      98    199.51375    124705.31    -1928.658    -5.048843   -974.73889    -963.7448  -0.22501753    966.58177    4.8666667    7.8666667 
      99    202.64696    124644.09   -1928.6272   -5.0487623   -974.80556   -963.80163  -0.22501875    966.64574    4.8666667    7.8666667 
     100    205.87677    124604.16   -1928.5935    -5.048674    -974.8651    -963.8674  -0.22502009    966.70713    4.8666667    7.8666667 
     101    208.82261    124516.03   -1928.5464   -5.0485508   -974.93417   -963.89634  -0.22502196    966.76498    4.8666667    7.8666667 
     102    211.93826    124257.77   -1928.4299   -5.0482458   -975.05421   -963.81324  -0.22502658    966.82789    4.8666667    7.8666667 
     103    214.82573    123988.65   -1928.1373   -5.0474797   -975.07685   -963.64017  -0.22503819    966.79596    4.8666667    7.8666667 
     104    217.50113     123573.9   -1927.9204   -5.0469121   -975.16494     -963.467  -0.22504679    966.81076    4.8666667    7.8666667 
     105    227.29226     123771.2   -1927.9392   -5.0469611   -975.22978    -963.9031  -0.22504604    966.98051    4.8666667    7.8666667 
     106    242.43193    123365.43   -1926.2538   -5.0425493   -974.93872   -963.25442  -0.22511289    966.59276    4.8666667    7.8666667 
     107    245.60751    123445.24   -1926.2407   -5.0425149   -974.97463   -963.36176  -0.22511341     966.6489    4.8666667    7.8666667 
     108    248.64947    123362.57   -1926.1973   -5.0424012   -975.06465   -963.37814  -0.22511513    966.71821    4.8666667    7.8666667 
     109    252.41603    123393.99   -1926.1657   -5.0423186   -975.13972   -963.45701  -0.22511638    966.79443    4.8666667    7.8666667 
     110    255.84519    123335.32   -1926.1239   -5.0422092   -975.22591   -963.49789  -0.22511804    966.86793    4.8666667    7.8666667 
     111    258.80544    123136.25   -1926.0814   -5.0420978   -975.34568   -963.48137  -0.22511973    966.94928    4.8666667    7.8666667 
     112    263.00567    123283.02   -1926.0575   -5.0420354   -975.37029   -963.63976  -0.22512068    967.01177    4.8666667    7.8666667 
     113    267.17222    123274.57   -1926.0015   -5.0418889   -975.45383   -963.70545   -0.2251229    967.09041    4.8666667    7.8666667 
     114    271.60252    123512.15   -1926.0038   -5.0418947   -975.56846   -963.81122  -0.22512281    967.20253    4.8666667    7.8666667 
     115     275.6417    123410.28   -1925.9499   -5.0417536   -975.71382   -963.81087  -0.22512495    967.30684    4.8666667    7.8666667 
     116    278.48161    123018.42   -1925.8866    -5.041588   -975.83153   -963.76977  -0.22512746    967.37981    4.8666667    7.8666667 
     117     279.7206    122937.98   -1925.8409   -5.0414682     -975.815   -963.80157  -0.22512927    967.37706    4.8666667    7.8666667 
     118    281.10408    122763.73   -1925.8005   -5.0413625   -975.86185   -963.78249  -0.22513087    967.40538    4.8666667    7.8666667 
     119    283.36585    122755.87   -1925.7799   -5.0413087    -975.9044   -963.83074  -0.22513169     967.4496    4.8666667    7.8666667 
     120       285.36    122662.09    -1925.717    -5.041144   -975.94474   -963.82571  -0.22513418    967.47727    4.8666667    7.8666667 
     121    287.11068    122421.65   -1925.6536    -5.040978   -976.03444    -963.7588   -0.2251367    967.52286    4.8666667    7.8666667 
     122    289.09869    122650.97    -1925.683   -5.0410549   -975.99704   -963.92348  -0.22513553    967.54252    4.8666667    7.8666667 
     123     291.1285     122766.9   -1925.6889   -5.0410703   -975.99461   -964.03177   -0.2251353    967.57138    4.8666667    7.8666667 
     124    292.89415    122493.69   -1925.5833   -5.0407941   -976.07316   -963.93465  -0.22513948    967.60054    4.8666667    7.8666667 
     125    294.24229    121950.89   -1925.2171   -5.0398352   -976.08783   -963.62011  -0.22515401    967.52309    4.8666667    7.8666667 
     126     297.0202    121636.97   -1924.9161   -5.0390475   -976.07826   -963.46556  -0.22516595    967.47332    4.8666667    7.8666667 
     127    305.86223    121671.63     -1924.49   -5.0379319   -976.10548   -963.44766  -0.22518285     967.4889    4.8666667    7.8666667 
     128    319.22802    121251.85   -1923.2032   -5.0345632   -975.90261   -963.02193  -0.22523389    967.22639    4.8666667    7.8666667 
     129    322.81722    121476.47   -1923.2248   -5.0346199   -975.92216   -963.20079  -0.22523303    967.29092    4.8666667    7.8666667 
     130    325.74496    121225.97   -1922.7255   -5.0333129   -975.81656   -962.95129  -0.22525283    967.14595    4.8666667    7.8666667 
     131    324.72862    121193.37    -1922.722   -5.0333036    -975.7947   -962.91953  -0.22525298     967.1213    4.8666667    7.8666667 
     132    325.25095    121238.55   -1922.6801   -5.0331939   -975.77812   -962.91996  -0.22525464    967.10964    4.8666667    7.8666667 
     133    326.34375    121234.02   -1922.6864   -5.0332104   -975.83799   -962.92018  -0.22525439    967.15263    4.8666667    7.8666667 
     134    326.68481    121233.54   -1922.6437   -5.0330986   -975.82749   -962.90479  -0.22525608    967.14085    4.8666667    7.8666667 
     135    326.05391    121299.74   -1922.5968    -5.032976    -975.7509   -962.90346  -0.22525794    967.08566    4.8666667    7.8666667 
     136    325.43589     121213.5   -1922.5676   -5.0328995   -975.70475   -962.88995   -0.2252591    967.04882    4.8666667    7.8666667 
     137    325.26818    121318.04   -1922.5619   -5.0328845   -975.63767   -962.94307  -0.22525933    967.01574    4.8666667    7.8666667 
     138    324.89227    121359.54   -1922.4849   -5.0326831   -975.54243   -962.94284  -0.22526238    966.94756    4.8666667    7.8666667 
     139    323.80417    121054.52   -1922.3149    -5.032238   -975.52267     -962.739  -0.22526912     966.8762    4.8666667    7.8666667 
     140    322.45603    121276.78    -1922.264   -5.0321047   -975.31401   -962.83034  -0.22527114    966.75249    4.8666667    7.8666667 
     141     321.3577    120952.49   -1922.1492   -5.0318043   -975.33128   -962.64422  -0.22527569    966.71256    4.8666667    7.8666667 
     142    321.12114    121038.74   -1922.1799   -5.0318844   -975.25811   -962.73636  -0.22527448    966.68604    4.8666667    7.8666667 
     143    320.75786    120900.06   -1922.0258   -5.0314813   -975.16436    -962.6582  -0.22528059     966.5971    4.8666667    7.8666667 
     144    321.62324    121083.42   -1922.1907   -5.0319128   -975.21997   -962.81005  -0.22527405     966.6795    4.8666667    7.8666667 
     145    319.87655    120719.04   -1922.0466   -5.0315355   -975.16574   -962.63415  -0.22527976    966.59124    4.8666667    7.8666667 
     146    319.26124    120689.08   -1922.0156   -5.0314544   -975.06829   -962.67029  -0.22528099    966.53164    4.8666667    7.8666667 
     147    320.72666    120819.22   -1922.0896   -5.0316483   -975.08627   -962.79856  -0.22527806    966.58061    4.8666667    7.8666667 
     148    320.62493    120208.65   -1921.8066   -5.0309072   -975.10441   -962.49232  -0.22528928    966.50778    4.8666667    7.8666667 
     149    322.30236    120236.71   -1921.8715   -5.0310772   -975.18029     -962.564  -0.22528671     966.5823    4.8666667    7.8666667 
     150    323.49918    120475.46   -1921.9182   -5.0311995   -975.14621   -962.70371  -0.22528486    966.59724    4.8666667    7.8666667 
     151    324.44855    120462.99    -1921.791   -5.0308664   -975.05347   -962.71599   -0.2252899    966.53452    4.8666667    7.8666667 
     152    328.56335    120601.77   -1921.8651   -5.0310604   -975.13756   -962.90863  -0.22528696     966.6491    4.8666667    7.8666667 
     153    328.48243    120344.45   -1921.7605   -5.0307867   -975.15357   -962.78411  -0.22529111    966.62566    4.8666667    7.8666667 
     154    332.17058     120658.6   -1921.8152     -5.03093   -975.16104   -963.01298  -0.22528894    966.69558    4.8666667    7.8666667 
     155    332.26224    120493.06   -1921.7255   -5.0306951   -975.11988   -962.96892   -0.2252925    966.65384    4.8666667    7.8666667 
     156    335.66782    120539.68   -1921.7412   -5.0307361   -975.20723   -963.06497  -0.22529188     966.7436    4.8666667    7.8666667 
     157    336.91654    120265.15   -1921.7109   -5.0306568   -975.32128   -962.98213  -0.22529308    966.80206    4.8666667    7.8666667 
     158    336.17426    119923.43   -1921.6713   -5.0305531   -975.36284   -962.86439  -0.22529465     966.7987    4.8666667    7.8666667 
     159    337.09041    119758.93   -1921.6761   -5.0305657   -975.42782   -962.84935  -0.22529446    966.84104    4.8666667    7.8666667 
     160    336.53665    119378.74   -1921.6357     -5.03046   -975.50983    -962.6997  -0.22529606    966.85766    4.8666667    7.8666667 
     161    337.06228    119421.88   -1921.6191   -5.0304165   -975.46434   -962.75443  -0.22529672    966.84055    4.8666667    7.8666667 
     162    339.18601    119494.31   -1921.5998   -5.0303658   -975.45123   -962.85279  -0.22529749      966.859    4.8666667    7.8666667 
     163    341.15787       119143   -1921.5784   -5.0303099   -975.59304   -962.78671  -0.22529834     966.9421    4.8666667    7.8666667 
     164     343.4142    119138.77   -1921.5538   -5.0302454    -975.6125   -962.85375  -0.22529931    966.97507    4.8666667    7.8666667 
     165    345.11239    118409.37   -1921.4359   -5.0299369   -975.85737   -962.57468  -0.22530399    967.07212    4.8666667    7.8666667 
     166    346.21438    117965.01    -1921.095   -5.0290444   -975.78957   -962.35581  -0.22531751     966.9625    4.8666667    7.8666667 
     167    354.16103     118327.4   -1920.8309   -5.0283532   -975.72788    -962.5448  -0.22532798    966.97237    4.8666667    7.8666667 
     168    363.12654     117580.7        -1920   -5.0261781   -975.75897   -962.12437  -0.22536094    966.87798    4.8666667    7.8666667 
     169    365.83485    117483.21   -1919.9393   -5.0260191   -975.81934   -962.13664  -0.22536335    966.92491    4.8666667    7.8666667 
     170    371.26568    117837.46   -1920.1715   -5.0266269   -975.99392   -962.46169  -0.22535414    967.14143    4.8666667    7.8666667 
     171    375.60953    117350.01   -1919.5583   -5.0250217   -975.91031   -962.14604  -0.22537846    966.99382    4.8666667    7.8666667 
     172    377.21483    117300.01   -1919.5978    -5.025125   -975.97573   -962.19915  -0.22537689    967.05566    4.8666667    7.8666667 
     173    378.83441    117136.76   -1919.5837   -5.0250882   -976.05943   -962.18114  -0.22537745    967.11064    4.8666667    7.8666667 
     174    380.38086     117140.5   -1919.5666   -5.0250434   -976.14075   -962.15885  -0.22537813    967.16271    4.8666667    7.8666667 
     175    382.00379    116976.19   -1919.4894   -5.0248413   -976.18427   -962.11809  -0.22538119     967.1826    4.8666667    7.8666667 
     176    384.75814    116985.07   -1919.5496   -5.0249989   -976.22543   -962.27276   -0.2253788     967.2557    4.8666667    7.8666667 
     177    387.24176    116897.65   -1919.4158   -5.0246486   -976.27335   -962.21336  -0.22538411    967.27363    4.8666667    7.8666667 
     178    390.73886    117013.15   -1919.3962   -5.0245973   -976.39771   -962.24161  -0.22538489    967.37087    4.8666667    7.8666667 
     179    393.59351    117307.11   -1919.4074   -5.0246268    -976.4008   -962.39038  -0.22538444    967.41512    4.8666667    7.8666667 
     180    391.88436    116787.62    -1919.074   -5.0237539   -976.26156   -962.11198  -0.22539767     967.2374    4.8666667    7.8666667 
     181    387.72746    116466.37   -1919.0841   -5.0237803   -976.17895   -961.99997  -0.22539727    967.14645    4.8666667    7.8666667 
     182    390.94656    116525.42   -1919.0681   -5.0237386   -976.22406   -962.09745   -0.2253979    967.20641    4.8666667    7.8666667 
     183    393.13657    116617.34   -1918.9264   -5.0233676   -976.14058    -962.1471  -0.22540352    967.16094    4.8666667    7.8666667 
     184    390.32894    116434.64    -1918.923   -5.0233586   -976.06955   -962.07642  -0.22540366    967.09002    4.8666667    7.8666667 
     185    389.36819    116236.33    -1918.926   -5.0233665    -976.0607   -962.04094  -0.22540354    967.07363    4.8666667    7.8666667 
     186    390.92047    116172.09   -1918.9236   -5.0233602   -976.12464   -962.05106  -0.22540363    967.12236    4.8666667    7.8666667 
     187    393.25816    116342.78    -1918.961   -5.0234581   -976.19948   -962.12874  -0.22540215    967.19791    4.8666667    7.8666667 
     188    390.49263    115663.27   -1918.9775   -5.0235012   -976.32268   -961.88583   -0.2254015    967.21755    4.8666667    7.8666667 
     189    388.28086     115317.2   -1918.9293   -5.0233751   -976.29592   -961.75547  -0.22540341    967.16163    4.8666667    7.8666667 
     190    390.81136    115254.42   -1918.2639   -5.0216332   -975.88575   -961.62484   -0.2254298    966.83224    4.8666667    7.8666667 
     191    394.78135    115657.11   -1918.3783   -5.0219327   -975.95261    -961.8679  -0.22542526    966.94862    4.8666667    7.8666667 
     192    393.30362    115263.88   -1918.2768   -5.0216669    -975.9797   -961.66652  -0.22542929    966.91138    4.8666667    7.8666667 
     193    391.74757    115217.12   -1918.3058   -5.0217429   -975.98641   -961.61221  -0.22542814    966.90076    4.8666667    7.8666667 
     194    393.02464    115186.47   -1918.3302   -5.0218068   -976.05837   -961.62755  -0.22542717    966.95665    4.8666667    7.8666667 
     195    393.82517    115163.02   -1918.3382   -5.0218278   -976.05204   -961.68133  -0.22542685    966.96729    4.8666667    7.8666667 
     196    392.67198    115158.52   -1918.3818   -5.0219418   -976.08793   -961.63218  -0.22542512    966.97903    4.8666667    7.8666667 
     197    390.34487    114945.11   -1918.3883   -5.0219589   -976.08809   -961.52396  -0.22542487    966.94852    4.8666667    7.8666667 
     198    387.73314    114734.32   -1918.3634   -5.0218938   -976.02308   -961.43546  -0.22542585    966.87694    4.8666667    7.8666667 
     199    386.62987    114567.72   -1918.4465   -5.0221113   -976.07039   -961.41691  -0.22542256    966.90541    4.8666667    7.8666667 
     200    386.23699    114091.65   -1918.5124   -5.0222837   -976.18274   -961.35107  -0.22541994    966.96721    4.8666667    7.8666667 
     201    387.13547    114166.14    -1918.581   -5.0224633   -976.18667   -961.46001  -0.22541722    967.00065    4.8666667    7.8666667 
     202    387.72268    114171.85   -1918.4687   -5.0221695   -976.04324    -961.5201  -0.22542167    966.91505    4.8666667    7.8666667 
     203    386.45932    113775.97    -1918.706   -5.0227907   -976.23443   -961.50401  -0.22541226    967.04702    4.8666667    7.8666667 
     204    404.59549    114090.19   -1917.8435   -5.0205326   -976.15272    -961.6163  -0.22544648    967.02242    4.8666667    7.8666667 
     205    404.25059     114103.4   -1917.8625   -5.0205826   -976.16779   -961.60333  -0.22544572    967.02951    4.8666667    7.8666667 
     206    401.65439    114263.73   -1917.9076   -5.0207005    -976.1118   -961.57653  -0.22544393    966.98165    4.8666667    7.8666667 
     207    400.57365    114625.24   -1917.9432   -5.0207937   -975.98523   -961.68547  -0.22544252    966.92157    4.8666667    7.8666667 
     208    406.07086    114557.47   -1917.9934    -5.020925   -976.17323   -961.81836  -0.22544053    967.09386    4.8666667    7.8666667 
     209    414.46133    114288.32   -1917.3213   -5.0191657    -976.1101   -961.62262  -0.22546719      966.995    4.8666667    7.8666667 
     210    411.74881    114086.49   -1917.3467   -5.0192321   -976.04226   -961.58224  -0.22546618    966.93486    4.8666667    7.8666667 
     211    410.33524    113987.91   -1917.3521   -5.0192462   -975.98448   -961.57583  -0.22546597    966.89158    4.8666667    7.8666667 
     212    411.94024    114109.41   -1917.4735    -5.019564   -976.03369   -961.72706  -0.22546115    966.96932    4.8666667    7.8666667 
     213    413.30125    114003.09   -1917.3049   -5.0191227   -975.96387    -961.6953  -0.22546784     966.9107    4.8666667    7.8666667 
     214    414.44144    114066.56   -1917.3733   -5.0193019   -975.94652   -961.83725  -0.22546512    966.93821    4.8666667    7.8666667 
     215    417.49232    114248.09   -1917.4239   -5.0194343   -975.92332   -962.06128  -0.22546312    966.98478    4.8666667    7.8666667 
     216    419.19662    114415.35   -1917.4678   -5.0195492   -975.86329   -962.24916  -0.22546138    966.99472    4.8666667    7.8666667 
     217    418.68823    114357.01   -1917.5017   -5.0196379   -975.86586   -962.25541  -0.22546003    966.99824    4.8666667    7.8666667 
     218    417.19486    114255.98   -1917.5437   -5.0197478   -975.86145   -962.22828  -0.22545837     966.9873    4.8666667    7.8666667 
     219    415.08884    114143.15    -1917.591   -5.0198718   -975.82764   -962.20575  -0.22545649    966.95655    4.8666667    7.8666667 
     220    412.62774    113958.94   -1917.6307   -5.0199757   -975.79642   -962.15545  -0.22545491    966.91984    4.8666667    7.8666667 
     221     411.4009    113918.27   -1917.6506   -5.0200277    -975.7256   -962.18571  -0.22545413    966.87754    4.8666667    7.8666667 
     222    413.13182    114183.37   -1917.7774   -5.0203596   -975.71622    -962.4071   -0.2254491    966.93308    4.8666667    7.8666667 
     223    414.72323    114351.89   -1917.7483   -5.0202835   -975.61413    -962.5585  -0.22545025    966.90272    4.8666667    7.8666667 
     224    414.08113    114322.56   -1917.8004     -5.02042   -975.55759   -962.63556  -0.22544818    966.88382    4.8666667    7.8666667 
     225    413.13176    114263.43   -1917.8509   -5.0205522   -975.51454   -962.68235  -0.22544618    966.86604    4.8666667    7.8666667 
     226    412.03189    114298.64   -1917.8982    -5.020676   -975.41551   -962.77453   -0.2254443    966.82094    4.8666667    7.8666667 
     227    411.71916    114325.52   -1917.9516   -5.0208157    -975.3442   -962.88379  -0.22544219    966.80055    4.8666667    7.8666667 
     228    411.88915    114292.85   -1918.0119   -5.0209737    -975.3147   -962.98201  -0.22543979      966.807    4.8666667    7.8666667 
     229    411.07793    114216.95   -1918.0657   -5.0211143   -975.25182   -963.05865  -0.22543766    966.78342    4.8666667    7.8666667 
     230    409.08553    114059.22     -1918.12   -5.0212565   -975.17666   -963.09002  -0.22543551    966.73824    4.8666667    7.8666667 
     231    406.05433    113821.51   -1918.1741   -5.0213981   -975.11626   -963.05522  -0.22543336    966.68493    4.8666667    7.8666667 
     232    402.29785    113579.08   -1918.2302    -5.021545   -975.05402   -962.98859  -0.22543114     966.6213    4.8666667    7.8666667 
     233    397.91588    113331.91   -1918.2851   -5.0216889   -974.96923   -962.91252  -0.22542896    966.53884    4.8666667    7.8666667 
     234    393.16319    113024.72   -1918.3352     -5.02182   -974.88779      -962.81  -0.22542697    966.45131    4.8666667    7.8666667 
     235    389.62354    112818.08   -1918.3876   -5.0219571   -974.81628   -962.75957  -0.22542489    966.38562    4.8666667    7.8666667 
     236    388.08566    112770.35   -1918.4489   -5.0221176   -974.76677   -962.79464  -0.22542246    966.35986    4.8666667    7.8666667 
     237     387.0124     112761.2   -1918.5111   -5.0222803   -974.71572     -962.855     -0.22542    966.34014    4.8666667    7.8666667 
     238     384.9242    112658.79   -1918.5631   -5.0224164   -974.64909   -962.87078  -0.22541793    966.29668    4.8666667    7.8666667 
     239    383.47326    112547.01   -1918.6142   -5.0225502   -974.61959   -962.87993  -0.22541591    966.27797    4.8666667    7.8666667 
     240    382.61005     112528.9   -1918.6826   -5.0227294   -974.57504   -962.95043  -0.22541319    966.26577    4.8666667    7.8666667 
     241    380.58658    112290.85   -1918.7212   -5.0228304   -974.56191   -962.90249  -0.22541166     966.2427    4.8666667    7.8666667 
     242    380.54239    112246.45   -1918.7776   -5.0229781   -974.55183   -962.96681  -0.22540942    966.25351    4.8666667    7.8666667 
     243    381.87543    112332.77   -1918.8574    -5.023187   -974.54543   -963.11865  -0.22540626    966.29164    4.8666667    7.8666667 
     244      380.129    112087.87   -1918.9022   -5.0233043   -974.54207    -963.0808  -0.22540448    966.27841    4.8666667    7.8666667 
     245    377.35001    111798.96    -1918.943    -5.023411   -974.55918   -962.96759  -0.22540286    966.25856    4.8666667    7.8666667 
     246    375.31742    111725.84    -1919.022   -5.0236179   -974.54719   -962.95851  -0.22539973    966.24719    4.8666667    7.8666667 
     247    371.89668    111386.02   -1919.0536   -5.0237005   -974.53044   -962.83835  -0.22539848    966.20112    4.8666667    7.8666667 
     248    370.59776    111223.52   -1919.1101   -5.0238484   -974.54289   -962.81845  -0.22539624    966.20428    4.8666667    7.8666667 
     249    370.61936    111179.59   -1919.1871     -5.02405   -974.57512   -962.86428  -0.22539318    966.24015    4.8666667    7.8666667 
     250    370.47582    111064.66    -1919.214   -5.0241203   -974.56767   -962.89151  -0.22539212    966.24244    4.8666667    7.8666667 
     251    372.59151     111171.2   -1919.3181   -5.0243929   -974.60144   -963.06609  -0.22538799    966.31574    4.8666667    7.8666667 
     252    371.81251    110876.25   -1919.3237   -5.0244077   -974.63212   -963.00269  -0.22538776    966.31981    4.8666667    7.8666667 
     253    372.65025    110923.59   -1919.4158   -5.0246487    -974.6582   -963.10991  -0.22538411    966.36859    4.8666667    7.8666667 
     254     371.6788    110558.55   -1919.4357   -5.0247008   -974.72714   -963.01306  -0.22538332    966.39061    4.8666667    7.8666667 
     255    372.74012    110407.45   -1919.4936   -5.0248524   -974.80952   -963.04084  -0.22538102    966.45739    4.8666667    7.8666667 
     256    375.32359    110434.95     -1919.56   -5.0250263   -974.87255   -963.17147  -0.22537839    966.53936    4.8666667    7.8666667 
     257    377.03198       110325    -1919.606   -5.0251466   -974.94021   -963.23389  -0.22537657    966.60543    4.8666667    7.8666667 
     258    378.08637    110283.69    -1919.689   -5.0253638   -975.00334   -963.30566  -0.22537328    966.67078    4.8666667    7.8666667 
     259    377.86896    109952.89   -1919.7102   -5.0254193   -975.08882   -963.23068  -0.22537244    966.71083    4.8666667    7.8666667 
     260    380.26023    109877.53   -1919.7853   -5.0256161   -975.17532   -963.33712  -0.22536945    966.80278    4.8666667    7.8666667 
     261    382.39226    109753.38   -1919.8046   -5.0256665   -975.23445   -963.40226  -0.22536869    966.86356    4.8666667    7.8666667 
     262    387.77424    109895.78     -1919.89   -5.0258901   -975.36789   -963.61929   -0.2253653    967.02041    4.8666667    7.8666667 
     263    391.19482    110066.28   -1919.9433   -5.0260295   -975.40132   -963.80755  -0.22536319    967.09747    4.8666667    7.8666667 
     264    393.27663    110197.57   -1920.0373   -5.0262756   -975.42134   -963.98409  -0.22535946     967.1615    4.8666667    7.8666667 
     265    392.04773     109880.1   -1920.0572   -5.0263278   -975.48739   -963.87745  -0.22535867    967.17867    4.8666667    7.8666667 
     266    391.54103    109740.51   -1920.1283   -5.0265138   -975.55563    -963.8553  -0.22535585    967.22117    4.8666667    7.8666667 
     267    390.86322    109468.47    -1920.171   -5.0266257   -975.66449    -963.7558  -0.22535416    967.27101    4.8666667    7.8666667 
     268    392.09469    109638.96   -1920.2378   -5.0268005    -975.7123   -963.83541  -0.22535151    967.32763    4.8666667    7.8666667 
     269    392.41662    109953.65    -1920.295   -5.0269504   -975.66095   -963.95988  -0.22534924    967.32584    4.8666667    7.8666667 
     270    392.06318    109900.62   -1920.3419    -5.027073   -975.66264   -963.98761  -0.22534738    967.33477    4.8666667    7.8666667 
     271    392.54427    109384.61   -1920.4326   -5.0273105   -975.85279    -963.9119  -0.22534378    967.44952    4.8666667    7.8666667 
     272    391.67513     108751.6   -1920.4502   -5.0273566   -975.93632   -963.80315  -0.22534308    967.47864    4.8666667    7.8666667 
     273    393.44146    108696.77   -1920.5502   -5.0276183   -975.96922   -963.95722  -0.22533912    967.54554    4.8666667    7.8666667 
     274    391.86503    108196.62   -1920.5546   -5.0276298   -976.08944   -963.76376  -0.22533894    967.57706    4.8666667    7.8666667 
     275    393.85815    108355.45   -1920.6609    -5.027908   -976.08559   -963.97205  -0.22533473    967.63291    4.8666667    7.8666667 
     276    394.62434    108148.74   -1920.6778   -5.0279524   -976.18278   -963.92956  -0.22533405    967.69056    4.8666667    7.8666667 
     277    396.74002    108130.21   -1920.7317   -5.0280933   -976.26733   -964.00302  -0.22533192    967.77184    4.8666667    7.8666667 
     278    397.44632    107858.84    -1920.703   -5.0280184   -976.38578   -963.89073  -0.22533305    967.82513    4.8666667    7.8666667 
     279    400.51414    108069.52   -1920.8429   -5.0283844   -976.45851   -964.10892  -0.22532751    967.93861    4.8666667    7.8666667 
     280    400.64854     107412.7   -1920.3373    -5.027061   -976.43897   -963.62952  -0.22534756    967.79039    4.8666667    7.8666667 
     281    406.85029    107889.05   -1920.4354   -5.0273177   -976.50731   -963.96468  -0.22534367    967.93391    4.8666667    7.8666667 
     282    418.78603    107544.65   -1919.6119   -5.0251619   -976.55351   -963.68278  -0.22537633     967.8895    4.8666667    7.8666667 
     283    416.75527     107110.2   -1919.4006   -5.0246089   -976.54293   -963.38208  -0.22538471    967.79745    4.8666667    7.8666667 
     284    419.38706    107072.58   -1919.4303   -5.0246868   -976.64989   -963.43448  -0.22538353    967.88891    4.8666667    7.8666667 
     285    421.52955    106952.55   -1919.1643   -5.0239902   -976.58893   -963.33486  -0.22539409    967.81772    4.8666667    7.8666667 
     286    416.98813    106865.16   -1919.2765    -5.024284   -976.53027   -963.28211  -0.22538964    967.76043    4.8666667    7.8666667 
     287    414.68379    106845.32   -1919.3459   -5.0244657   -976.50189    -963.2664  -0.22538688    967.73546    4.8666667    7.8666667 
     288    412.26297     106787.9   -1919.4055   -5.0246218   -976.46813   -963.24057  -0.22538452    967.70378    4.8666667    7.8666667 
     289    410.57865    106695.28   -1919.4694   -5.0247891   -976.45132   -963.23833  -0.22538198    967.69092    4.8666667    7.8666667 
     290    409.91923    106663.97   -1919.5323   -5.0249538    -976.4453    -963.2748  -0.22537949    967.69675    4.8666667    7.8666667 
     291     410.5714     106532.4   -1919.9381    -5.026016   -976.91392   -963.24406  -0.22536339    968.02313    4.8666667    7.8666667 
     292     408.9699    106353.61   -1919.9736   -5.0261088   -976.93177   -963.18279  -0.22536199    968.01851    4.8666667    7.8666667 
     293    405.89785    106275.81   -1920.0571   -5.0263275   -976.89195   -963.15487  -0.22535867    967.98184    4.8666667    7.8666667 
     294    404.90942    106335.66   -1920.1325   -5.0265248   -976.86947   -963.20402  -0.22535569    967.97941    4.8666667    7.8666667 
     295    403.43423    106413.74   -1920.1973   -5.0266946   -976.81993   -963.24579  -0.22535311    967.95552    4.8666667    7.8666667 
     296    401.19502    106466.24   -1920.2584   -5.0268545    -976.7657   -963.25083  -0.22535069    967.91788    4.8666667    7.8666667 
     297    398.45353    106519.83   -1920.3247   -5.0270279   -976.72735   -963.22041  -0.22534806     967.8816    4.8666667    7.8666667 
     298    394.36901    106577.98   -1920.3951   -5.0272124   -976.67275   -963.14432  -0.22534527    967.82074    4.8666667    7.8666667 
     299    390.46153    106548.68   -1920.4257   -5.0272924   -976.58896   -963.06623  -0.22534405    967.73849    4.8666667    7.8666667 
     300     387.8554     106336.3    -1920.506   -5.0275026   -976.58564   -963.02148  -0.22534087    967.72324    4.8666667    7.8666667 
     301     385.5353    106214.27   -1920.5639   -5.0276543    -976.5399   -963.01092  -0.22533857     967.6873    4.8666667    7.8666667 
     302    383.40544    106168.77   -1920.6252   -5.0278146   -976.49314   -963.01402  -0.22533614    967.65447    4.8666667    7.8666667 
     303    381.51047     106149.9   -1920.6849    -5.027971   -976.45215   -963.02142  -0.22533377    967.62701    4.8666667    7.8666667 
     304    379.99263    106171.15   -1920.7446   -5.0281272   -976.41303   -963.04548  -0.22533141     967.6056    4.8666667    7.8666667 
     305    378.96209    106237.62   -1920.8041   -5.0282829   -976.37527   -963.09196  -0.22532905     967.5915    4.8666667    7.8666667 
     306    378.52543    106331.15   -1920.8607   -5.0284313   -976.34431    -963.1581   -0.2253268    967.58784    4.8666667    7.8666667 
     307    378.56085    106395.71   -1920.9223   -5.0285923   -976.34125   -963.22442  -0.22532436    967.60424    4.8666667    7.8666667 
     308    378.89964    106426.97   -1920.9802    -5.028744   -976.34868   -963.29162  -0.22532206    967.62841    4.8666667    7.8666667 
     309    379.55695     106474.5   -1921.0406   -5.0289021    -976.3558   -963.37726  -0.22531967    967.65757    4.8666667    7.8666667 
     310     379.9327       106532   -1921.1049   -5.0290703   -976.35423    -963.4616  -0.22531712    967.68013    4.8666667    7.8666667 
     311    378.74648    106540.48   -1921.1648   -5.0292273   -976.31801   -963.49938  -0.22531474    967.66466    4.8666667    7.8666667 
     312    377.55889       106482   -1921.1843   -5.0292782   -976.28738   -963.49097  -0.22531397    967.64027    4.8666667    7.8666667 
     313    377.67086    106402.02   -1921.2625   -5.0294829    -976.3786   -963.48343  -0.22531087    967.70336    4.8666667    7.8666667 
     314    378.03235    106375.56   -1921.3154   -5.0296215   -976.41481   -963.51799  -0.22530876    967.73897    4.8666667    7.8666667 
     315    378.50596    106396.06    -1921.374   -5.0297749   -976.42995   -963.58479  -0.22530644    967.76856    4.8666667    7.8666667 
     316    378.83008    106410.67   -1921.4331   -5.0299295   -976.45589   -963.63384   -0.2253041    967.80088    4.8666667    7.8666667 
     317    378.79589       106408   -1921.4868   -5.0300701   -976.49084   -963.65093  -0.22530197    967.83064    4.8666667    7.8666667 
     318    379.24401    106439.02   -1921.5429    -5.030217   -976.52663   -963.69331  -0.22529974    967.86814    4.8666667    7.8666667 
     319    380.69602     106514.6   -1921.6008   -5.0303687   -976.57099   -963.77841  -0.22529744    967.92387    4.8666667    7.8666667 
     320    382.79445    106619.48   -1921.6632   -5.0305319   -976.62506   -963.89003  -0.22529497    967.99405    4.8666667    7.8666667 
     321    384.60364    106690.74   -1921.7195   -5.0306794    -976.6949   -963.96564  -0.22529274    968.06537    4.8666667    7.8666667 
     322    386.31875    106747.35   -1921.7742   -5.0308224   -976.77935   -964.02029  -0.22529057    968.14125    4.8666667    7.8666667 
     323    388.72463    106839.36   -1921.8335   -5.0309776   -976.86943   -964.10798  -0.22528822     968.2305    4.8666667    7.8666667 
     324    391.60976    106967.53   -1921.8967   -5.0311433   -976.95216   -964.23063  -0.22528571    968.32435    4.8666667    7.8666667 
     325    393.87116    107076.93   -1921.9616    -5.031313   -977.01612   -964.34288  -0.22528314    968.40179    4.8666667    7.8666667 
     326    394.40536    106982.25   -1922.0183   -5.0314614   -977.11962   -964.32237  -0.22528089    968.47009    4.8666667    7.8666667 
     327    393.80573     106816.9   -1922.0708   -5.0315991   -977.22264   -964.24239   -0.2252788    968.52124    4.8666667    7.8666667 
     328    393.84401    106755.37   -1922.1243    -5.031739   -977.30233   -964.21803  -0.22527668    968.57137    4.8666667    7.8666667 
     329    395.58521    106822.62   -1922.1852   -5.0318985   -977.38839   -964.27867  -0.22527427    968.65007    4.8666667    7.8666667 
     330    398.87792     106969.4   -1922.2496   -5.0320671   -977.49408   -964.39953  -0.22527171    968.75989    4.8666667    7.8666667 
     331    402.45547    107112.71   -1922.3212   -5.0322544     -977.614   -964.52736  -0.22526887    968.88186    4.8666667    7.8666667 
     332    403.78456    107133.46   -1922.4027   -5.0324677   -977.70852   -964.57978  -0.22526564    968.96426    4.8666667    7.8666667 
     333    401.72549    106895.91   -1922.4345    -5.032551   -977.76722   -964.45149  -0.22526438    968.97001    4.8666667    7.8666667 
     334    399.11484    106709.61   -1922.4908   -5.0326985   -977.79444   -964.35204  -0.22526214    968.96127    4.8666667    7.8666667 
     335    398.02161    106627.88   -1922.5553   -5.0328673   -977.82883   -964.32829  -0.22525959    968.97906    4.8666667    7.8666667 
     336    397.97068    106595.07   -1922.6201   -5.0330368   -977.87288   -964.34648  -0.22525702    969.01563    4.8666667    7.8666667 
     337    398.32304    106548.72   -1922.6817   -5.0331982   -977.92805   -964.37032  -0.22525457    969.06178    4.8666667    7.8666667 
     338     399.1835    106493.28   -1922.7431   -5.0333588   -978.00126   -964.40083  -0.22525214    969.12276    4.8666667    7.8666667 
     339    400.74527    106481.46   -1922.8072   -5.0335267   -978.08845    -964.4547   -0.2252496    969.20035    4.8666667    7.8666667 
     340     402.7054    106494.64   -1922.8716   -5.0336953   -978.18815   -964.51595  -0.22524704    969.28902    4.8666667    7.8666667 
     341    404.96538     106514.5   -1922.9331   -5.0338564    -978.2929   -964.58403   -0.2252446    969.38324    4.8666667    7.8666667 
     342    407.86803    106562.44   -1923.0016   -5.0340355   -978.41432   -964.67397  -0.22524189    969.49558    4.8666667    7.8666667 
     343    410.76478    106739.06   -1923.0707   -5.0342166   -978.48507   -964.81507  -0.22523914    969.58604    4.8666667    7.8666667 
     344    412.44313    106874.19   -1923.1423   -5.0344039   -978.51522   -964.93913   -0.2252363    969.64255    4.8666667    7.8666667 
     345    412.34611     106745.6   -1923.1962    -5.034545   -978.56154    -964.9419  -0.22523417    969.67642    4.8666667    7.8666667 
     346    412.07746     106660.3   -1923.2628   -5.0347193   -978.60141   -964.95541  -0.22523153    969.70866    4.8666667    7.8666667 
     347    412.06072    106504.96   -1923.3265   -5.0348861   -978.68348   -964.93623    -0.225229    969.76194    4.8666667    7.8666667 
     348    412.50485    106461.05   -1923.3981   -5.0350736   -978.74364   -964.96958  -0.22522616    969.81433    4.8666667    7.8666667 
     349    413.26799    106389.11   -1923.4559   -5.0352248   -978.82656   -964.98198  -0.22522387    969.87716    4.8666667    7.8666667 
     350    415.32919       106308   -1923.5306   -5.0354204   -978.98072   -965.00404   -0.2252209    969.99378    4.8666667    7.8666667 
     351    418.39672    106199.49   -1923.5948   -5.0355885    -979.1781   -965.02195  -0.22521836    970.14025    4.8666667    7.8666667 
     352    421.79134    106278.13   -1923.6675   -5.0357789    -979.3131   -965.12687  -0.22521547    970.26655    4.8666667    7.8666667 
     353    424.92517    106241.53   -1923.7432    -5.035977   -979.46459   -965.20539  -0.22521247    970.39722    4.8666667    7.8666667 
     354    427.20597    106018.48   -1923.8166    -5.036169   -979.62184    -965.2338  -0.22520956    970.51785    4.8666667    7.8666667 
     355    425.37658    105849.29   -1923.8691   -5.0363066   -979.62822   -965.18991  -0.22520748    970.50988    4.8666667    7.8666667 
     356     419.8627    105416.68   -1923.9205   -5.0364412   -979.63419   -964.96379  -0.22520544     970.4501    4.8666667    7.8666667 
     357    414.86366    105245.07    -1924.008     -5.03667    -979.5676   -964.87161  -0.22520197    970.37604    4.8666667    7.8666667 
     358    411.78583    105029.23   -1924.0805   -5.0368599   -979.58673   -964.77344  -0.22519909    970.36182    4.8666667    7.8666667 
     359    410.64766    104767.83   -1924.1282   -5.0369847   -979.69257   -964.65923   -0.2251972    970.40532    4.8666667    7.8666667 
     360     410.6271    104703.04   -1924.1736   -5.0371038   -979.75862   -964.63763   -0.2251954    970.44647    4.8666667    7.8666667 
     361     411.0543    104381.05   -1924.1681   -5.0370892   -979.91333   -964.49841  -0.22519562    970.51809    4.8666667    7.8666667 
     362    412.49559       104453   -1924.2322    -5.037257   -979.99286   -964.55396  -0.22519308    970.59067    4.8666667    7.8666667 
     363    413.27775    104685.01   -1924.1621   -5.0370736    -979.8955   -964.61978  -0.22519585    970.53964    4.8666667    7.8666667 
     364    415.83271    104917.77   -1924.2038   -5.0371827   -979.93009   -964.75268   -0.2251942    970.60191    4.8666667    7.8666667 
     365    421.12607    104772.53   -1923.9858   -5.0366121   -980.02962   -964.69588  -0.22520285    970.65782    4.8666667    7.8666667 
     366    421.01487    104793.45   -1924.0995   -5.0369096    -980.0653   -964.76835  -0.22519834    970.70359    4.8666667    7.8666667 
     367    421.92377    104900.42   -1924.1751   -5.0371077   -980.07244   -964.88165  -0.22519534    970.74055    4.8666667    7.8666667 
     368    421.63843    104805.39   -1924.2494   -5.0373021     -980.119   -964.89531  -0.22519239    970.77762    4.8666667    7.8666667 
     369    420.23206    104517.46    -1924.313   -5.0374685   -980.21715   -964.79146  -0.22518987    970.81849    4.8666667    7.8666667 
     370    419.33439    104289.04   -1924.3859   -5.0376595   -980.33526   -964.70211  -0.22518698    970.87775    4.8666667    7.8666667 
     371    418.36284    104210.74   -1924.4897   -5.0379313   -980.42377   -964.66955  -0.22518286    970.93177    4.8666667    7.8666667 
     372    415.93115    104033.06   -1924.5137   -5.0379939   -980.46118   -964.53629  -0.22518191    970.92087    4.8666667    7.8666667 
[...]
    9868    292.66008    90425.771   -1953.5537   -5.1140149   -994.34173   -973.62491  -0.22403008    983.37061    4.8666667    7.8666667 
    9869    294.28364     90436.65   -1953.5617   -5.1140359    -994.3613   -973.69333  -0.22402976    983.40396    4.8666667    7.8666667 
    9870    296.29945    90490.547   -1953.5715   -5.1140615   -994.36752   -973.79615  -0.22402937    983.43747    4.8666667    7.8666667 
    9871    297.88499    90533.593   -1953.5767   -5.1140752   -994.35796   -973.88906  -0.22402916    983.45687    4.8666667    7.8666667 
    9872    298.64962    90514.142   -1953.5862   -5.1141001   -994.34549   -973.94868  -0.22402879    983.46475    4.8666667    7.8666667 
    9873    298.33715    90261.582   -1953.5869   -5.1141019   -994.39334   -973.88612  -0.22402876    983.48139    4.8666667    7.8666667 
    9874    298.05256    89960.471   -1953.5886   -5.1141062   -994.46719   -973.79989  -0.22402869    983.50997    4.8666667    7.8666667 
    9875    299.00343    89770.461   -1953.5971   -5.1141285   -994.54494    -973.7775  -0.22402836    983.55939    4.8666667    7.8666667 
    9876    300.58186     89699.04   -1953.6097   -5.1141616   -994.60789   -973.80494  -0.22402785    983.61226    4.8666667    7.8666667 
    9877    301.45555    89500.843   -1953.6153    -5.114176   -994.70682   -973.75455  -0.22402764    983.66897    4.8666667    7.8666667 
    9878    301.55957    89270.545   -1953.6194   -5.1141869   -994.80366   -973.66697  -0.22402747    983.71366    4.8666667    7.8666667 
    9879    301.16253    89041.584   -1953.6253   -5.1142024   -994.89934   -973.55768  -0.22402724    983.75137    4.8666667    7.8666667 
    9880    300.61941    88838.172   -1953.6284   -5.1142104    -994.9765   -973.45681  -0.22402712    983.77819    4.8666667    7.8666667 
    9881    301.16388    88762.355   -1953.6396   -5.1142398   -995.00979   -973.46155  -0.22402667    983.80338    4.8666667    7.8666667 
    9882    302.02236    88711.916    -1953.651   -5.1142697   -995.01087    -973.5142  -0.22402622      983.819    4.8666667    7.8666667 
    9883    302.29914    88616.066   -1953.6488    -5.114264   -994.99389    -973.5426   -0.2240263    983.81487    4.8666667    7.8666667 
    9884    303.52988    88807.557   -1953.5312   -5.1139561   -994.83871   -973.64079  -0.22403097    983.73163    4.8666667    7.8666667 
    9885    305.46178    88912.825   -1953.5444   -5.1139906   -994.88694   -973.70088  -0.22403045    983.78318    4.8666667    7.8666667 
    9886    307.31005    88796.804   -1953.5409   -5.1139814   -995.02243   -973.65291  -0.22403058    983.86681    4.8666667    7.8666667 
    9887     355.5099    89355.882   -1951.4951   -5.1086259   -995.25939   -973.74388  -0.22411173    984.06784    4.8666667    7.8666667 
    9888    473.63662    90894.368   -1945.6029   -5.0932013    -995.1391   -973.78951  -0.22434544    984.00988    4.8666667    7.8666667 
    9889    470.26347    90888.375   -1945.5959    -5.093183    -995.1014   -973.65411  -0.22434571    983.94459    4.8666667    7.8666667 
    9890     464.3744    90800.583   -1945.5925    -5.093174   -994.97801   -973.48403  -0.22434585    983.80801    4.8666667    7.8666667 
    9891     461.2324    90845.709   -1945.6123   -5.0932258   -994.93916   -973.38793  -0.22434506    983.75291    4.8666667    7.8666667 
    9892    459.37702    91154.671    -1945.654    -5.093335    -994.8562   -973.42121  -0.22434341    983.70271    4.8666667    7.8666667 
    9893    450.32806    90859.014   -1945.6904   -5.0934304    -994.8052   -973.06303  -0.22434196    983.56476    4.8666667    7.8666667 
    9894    442.59189    90900.347   -1945.7172   -5.0935006   -994.61248   -972.90155   -0.2243409    983.38081    4.8666667    7.8666667 
    9895    442.17288    91582.368   -1945.7537   -5.0935962   -994.35307   -973.17685  -0.22433945    983.27248    4.8666667    7.8666667 
    9896    442.21767    91728.281   -1945.5695   -5.0931139   -994.17462   -973.17329  -0.22434676    983.14396    4.8666667    7.8666667 
    9897    441.73714    92074.724   -1945.6458   -5.0933135   -994.12394   -973.27656  -0.22434373     983.1366    4.8666667    7.8666667 
    9898    441.45242     92100.99   -1945.6409   -5.0933009   -994.10976   -973.27187  -0.22434393    983.12512    4.8666667    7.8666667 
    9899    440.60305    92373.739   -1945.6697   -5.0933761   -993.98075    -973.3878  -0.22434279    983.06528    4.8666667    7.8666667 
    9900    442.07767    92979.907   -1945.7472   -5.0935792   -993.87137   -973.64737  -0.22433971    983.06001    4.8666667    7.8666667 
    9901    435.05685    92780.545   -1945.7166    -5.093499   -993.72205   -973.42029  -0.22434092    982.88879    4.8666667    7.8666667 
    9902     426.2108    92458.615   -1945.7318   -5.0935388   -993.61961    -973.1023  -0.22434032    982.72537    4.8666667    7.8666667 
    9903     419.3403    92175.416   -1945.7063    -5.093472   -993.57997   -972.77804  -0.22434133    982.60532    4.8666667    7.8666667 
    9904    411.47126    92267.175    -1945.769    -5.093636   -993.40921   -972.62394  -0.22433885    982.43911    4.8666667    7.8666667 
    9905    405.77576    92577.267   -1945.8164   -5.0937602   -993.23777   -972.56231  -0.22433697    982.29859    4.8666667    7.8666667 
    9906    400.92879    92950.898   -1945.8452   -5.0938357   -993.06144   -972.52877  -0.22433582    982.16256    4.8666667    7.8666667 
    9907    400.69484    93498.526   -1945.8787   -5.0939232   -992.97388   -972.63825   -0.2243345    982.13062    4.8666667    7.8666667 
    9908    399.70642    94396.539   -1946.0595   -5.0943965   -992.79952   -972.94474  -0.22432733    982.09173    4.8666667    7.8666667 
    9909    391.44897    94343.172   -1945.9729   -5.0941698   -992.45962   -972.79137  -0.22433076     981.8048    4.8666667    7.8666667 
    9910     385.3836    94115.898   -1946.0307   -5.0943213   -992.49205   -972.51811  -0.22432846    981.75065    4.8666667    7.8666667 
    9911    377.71826    93647.058   -1945.9518   -5.0941147   -992.46915   -972.08458   -0.2243316    981.61186    4.8666667    7.8666667 
    9912    371.63159    93798.171   -1946.0124   -5.0942732   -992.33782   -971.97669  -0.22432919      981.487    4.8666667    7.8666667 
    9913    370.74926    94512.215   -1946.0814    -5.094454   -992.17411   -972.16601  -0.22432646    981.42291    4.8666667    7.8666667 
    9914    368.53321    95074.143   -1946.1228   -5.0945623   -991.96725    -972.3051  -0.22432481    981.31375    4.8666667    7.8666667 
    9915    370.60549    95267.381   -1945.9316   -5.0940617   -991.92642   -972.25676   -0.2243324     981.2713    4.8666667    7.8666667 
    9916    381.73263    95391.317   -1945.0055   -5.0916373   -991.77119   -972.03388  -0.22436913    981.09937    4.8666667    7.8666667 
    9917    376.87282     95384.58     -1945.04   -5.0917278   -991.71349   -971.88679  -0.22436776    981.01631    4.8666667    7.8666667 
    9918    372.82706    95483.133   -1945.0761   -5.0918221   -991.62291   -971.81418  -0.22436633    980.93071    4.8666667    7.8666667 
    9919    371.03231    95623.846   -1945.1239   -5.0919474   -991.57928   -971.81728  -0.22436443    980.90017    4.8666667    7.8666667 
    9920     372.0873    95710.118   -1945.1637   -5.0920517    -991.6444   -971.84394  -0.22436285    980.95431    4.8666667    7.8666667 
    9921    375.50253    96031.384     -1945.23   -5.0922252    -991.6971   -972.02571  -0.22436022    981.04333    4.8666667    7.8666667 
    9922    377.38796    96330.966   -1945.2664   -5.0923203   -991.66159   -972.19042  -0.22435878    981.06433    4.8666667    7.8666667 
    9923    377.79857    96620.292   -1945.3291   -5.0924846   -991.59975   -972.33522  -0.22435629    981.06075    4.8666667    7.8666667 
    9924    381.78102    96558.323   -1945.0556   -5.0917686   -991.60906   -972.24855  -0.22436714    981.04364    4.8666667    7.8666667 
    9925    390.38777    96294.879   -1944.4831   -5.0902698    -991.7153   -971.99361  -0.22438985    981.04927    4.8666667    7.8666667 
    9926    388.60334    96310.039   -1944.4806   -5.0902634   -991.64899   -971.96961  -0.22438995    980.99492    4.8666667    7.8666667 
    9927    384.80288    96129.412   -1944.5014   -5.0903179   -991.58148   -971.87077  -0.22438912     980.9185    4.8666667    7.8666667 
    9928     382.1741    96210.006    -1944.542   -5.0904241   -991.46653   -971.89683  -0.22438751    980.84331    4.8666667    7.8666667 
    9929    381.95135    96522.414   -1944.6206     -5.09063   -991.37187   -972.05916  -0.22438439     980.8211    4.8666667    7.8666667 
    9930    378.93115    96342.289   -1944.6307   -5.0906563   -991.34101   -971.95132    -0.224384    980.76845    4.8666667    7.8666667 
    9931    376.15087    96306.603   -1944.6633   -5.0907416   -991.26693   -971.92107   -0.2243827    980.70668    4.8666667    7.8666667 
    9932    375.99629    96570.634   -1944.7304   -5.0909173   -991.18522   -972.06229  -0.22438004    980.68782    4.8666667    7.8666667 
    9933    375.35313    96765.163   -1944.7606   -5.0909964   -991.08957   -972.15649  -0.22437884    980.64577    4.8666667    7.8666667 
    9934    374.25967    96963.237   -1944.7982   -5.0910948   -991.00836   -972.22144  -0.22437735    980.60578    4.8666667    7.8666667 
    9935    371.61941    97038.915   -1944.8433   -5.0912127   -990.89552    -972.2493  -0.22437556     980.5326    4.8666667    7.8666667 
    9936    367.77786    96945.324   -1944.8761   -5.0912987   -990.76209   -972.22638  -0.22437426    980.43033    4.8666667    7.8666667 
    9937    365.43783    96979.785   -1944.9183   -5.0914092   -990.63751   -972.27792  -0.22437259    980.35543    4.8666667    7.8666667 
    9938    362.36801    96855.662   -1944.9409   -5.0914682   -990.54566   -972.24115  -0.22437169    980.27909    4.8666667    7.8666667 
    9939    359.89363    96854.211   -1944.9746   -5.0915565   -990.46874   -972.22993  -0.22437036    980.22066    4.8666667    7.8666667 
    9940    360.95714    97109.526   -1945.0215   -5.0916793   -990.47614    -972.3218   -0.2243685    980.25182    4.8666667    7.8666667 
    9941    361.94848    97355.668   -1945.0466   -5.0917451   -990.46916   -972.40275   -0.2243675    980.26963    4.8666667    7.8666667 
    9942    361.04339    97270.562   -1945.0893   -5.0918567   -990.54218    -972.3278  -0.22436581    980.30071    4.8666667    7.8666667 
    9943    358.90284    96968.141   -1945.1198   -5.0919365   -990.66753   -972.12751   -0.2243646    980.33391    4.8666667    7.8666667 
    9944      354.565    96660.634   -1945.1341   -5.0919741   -990.67641   -971.91936  -0.22436403     980.2814    4.8666667    7.8666667 
    9945    351.36656    96489.135    -1945.154   -5.0920261   -990.65484   -971.80328  -0.22436324    980.23305    4.8666667    7.8666667 
    9946    352.81606    96671.866   -1945.2045   -5.0921583   -990.66775   -971.91225  -0.22436124    980.27299    4.8666667    7.8666667 
    9947    354.26103    96777.609   -1945.2375   -5.0922447   -990.66925   -972.01491  -0.22435993    980.30301    4.8666667    7.8666667 
    9948    353.13968    96611.805   -1945.2614   -5.0923072   -990.69648   -971.95633  -0.22435898    980.30591    4.8666667    7.8666667 
    9949    352.88064    96350.961   -1945.2795   -5.0923548   -990.78412   -971.87411  -0.22435826    980.34548    4.8666667    7.8666667 
    9950    355.22856    96287.596   -1945.3297   -5.0924862   -990.88127   -971.94279  -0.22435627    980.43445    4.8666667    7.8666667 
    9951    357.96148    96223.185   -1945.3509   -5.0925416    -990.9507   -972.02912  -0.22435543     980.5086    4.8666667    7.8666667 
    9952    360.61631    96253.241   -1945.3897   -5.0926432   -991.01308   -972.13629  -0.22435389    980.58355    4.8666667    7.8666667 
    9953    362.39631    96358.667   -1945.4223   -5.0927284   -991.02725   -972.24235   -0.2243526    980.62361    4.8666667    7.8666667 
    9954    362.18716    96218.172   -1945.4512   -5.0928042   -991.07594    -972.2123  -0.22435145    980.64996    4.8666667    7.8666667 
    9955    361.00219    95927.108   -1945.4765   -5.0928704    -991.1356   -972.11956  -0.22435045    980.66647    4.8666667    7.8666667 
    9956    360.05672    95727.114   -1945.5089   -5.0929552   -991.16675   -972.07427  -0.22434916    980.67592    4.8666667    7.8666667 
    9957     359.3769    95576.262   -1945.5394   -5.0930351   -991.20336   -972.03468  -0.22434795    980.69091    4.8666667    7.8666667 
    9958    358.38748    95508.023   -1945.5732   -5.0931237   -991.18817   -972.03497  -0.22434661    980.68001    4.8666667    7.8666667 
    9959    356.60821    95325.732   -1945.6045   -5.0932055   -991.17835   -971.98843  -0.22434537    980.65973    4.8666667    7.8666667 
    9960    354.34818    95007.749   -1945.6245    -5.093258   -991.22139   -971.85414  -0.22434458    980.65257    4.8666667    7.8666667 
    9961    353.09452    94760.943   -1945.6508   -5.0933266   -991.30943   -971.73059  -0.22434354    980.68072    4.8666667    7.8666667 
    9962    353.68834     94650.61   -1945.6877   -5.0934233   -991.42151   -971.68467  -0.22434207    980.74804    4.8666667    7.8666667 
    9963    354.81861     94474.29   -1945.7176   -5.0935016   -991.56867   -971.62307  -0.22434089     980.8361    4.8666667    7.8666667 
    9964    355.81588    94323.459   -1945.7459   -5.0935756   -991.68856   -971.58057  -0.22433976       980.91    4.8666667    7.8666667 
    9965    356.46409    94264.097    -1945.779   -5.0936624   -991.74413    -971.5901  -0.22433845    980.95247    4.8666667    7.8666667 
    9966    356.40532     94166.27   -1945.8052   -5.0937308    -991.7752   -971.58227  -0.22433741    980.97248    4.8666667    7.8666667 
    9967    356.04288    93991.527   -1945.8325   -5.0938024   -991.82623   -971.54074  -0.22433633    980.99726    4.8666667    7.8666667 
    9968    355.92543    93834.936   -1945.8644   -5.0938858   -991.86841   -971.52464  -0.22433506    981.02288    4.8666667    7.8666667 
    9969    356.11252    93675.129    -1945.893   -5.0939608    -991.9214   -971.50952  -0.22433393    981.05654    4.8666667    7.8666667 
    9970    356.42222    93592.516   -1945.9227   -5.0940385   -991.94456   -971.53128  -0.22433275    981.07923    4.8666667    7.8666667 
    9971    357.06628    93539.198   -1945.9504   -5.0941111   -991.97264   -971.56265  -0.22433165    981.10816    4.8666667    7.8666667 
    9972    358.11037    93445.682   -1945.9767   -5.0941798   -992.04141   -971.57153  -0.22433061    981.15993    4.8666667    7.8666667 
    9973    361.77782    93403.179   -1945.9904   -5.0942156   -992.17787   -971.62936  -0.22433007    981.27413    4.8666667    7.8666667 
    9974    366.42994    93199.139   -1945.7924   -5.0936974   -992.29356   -971.54483  -0.22433792    981.33373    4.8666667    7.8666667 
    9975    368.01709    93028.834   -1945.8427   -5.0938289   -992.42257   -971.54423  -0.22433593    981.42597    4.8666667    7.8666667 
    9976    368.47013    92693.833   -1945.8717    -5.093905   -992.52323   -971.49494  -0.22433477    981.48415    4.8666667    7.8666667 
    9977    368.21873    92292.679    -1945.897   -5.0939713   -992.58457   -971.44653  -0.22433377     981.5144    4.8666667    7.8666667 
    9978    368.13216    91865.545   -1945.9326   -5.0940644   -992.67172   -971.39068  -0.22433236    981.56103    4.8666667    7.8666667 
    9979    368.74532    91471.649   -1945.9553   -5.0941238   -992.78273   -971.33257  -0.22433146    981.62416    4.8666667    7.8666667 
    9980    371.45543    91277.005   -1945.9919   -5.0942196   -992.92709   -971.35828  -0.22433001    981.73488    4.8666667    7.8666667 
    9981    373.83075    91102.069   -1946.0492   -5.0943697   -993.08133   -971.37837  -0.22432773    981.85105    4.8666667    7.8666667 
    9982    373.18019    90865.461   -1946.0797   -5.0944494   -993.12017   -971.33791  -0.22432652    981.86739    4.8666667    7.8666667 
    9983    369.60512    90901.905   -1946.0575   -5.0943913   -992.97524    -971.2846   -0.2243274    981.74842    4.8666667    7.8666667 
    9984    368.02615    90556.112   -1946.1626   -5.0946665   -993.02068   -971.26651  -0.22432324    981.77562    4.8666667    7.8666667 
    9985     369.1065    90271.382   -1946.1902   -5.0947387   -993.04498   -971.32301  -0.22432214    981.80895    4.8666667    7.8666667 
    9986    370.27633    90095.597   -1946.2203   -5.0948177    -993.0557   -971.40006  -0.22432094    981.83834    4.8666667    7.8666667 
    9987    372.05639    89903.775   -1946.2774   -5.0949671   -993.13349   -971.46701  -0.22431868    981.91292    4.8666667    7.8666667 
    9988    373.39728    89623.044   -1946.2908   -5.0950021   -993.24905   -971.43085  -0.22431815    981.98555    4.8666667    7.8666667 
    9989    374.96704    89556.905   -1946.3186    -5.095075    -993.2875   -971.49757  -0.22431705    982.03192    4.8666667    7.8666667 
    9990    374.50313    89289.995   -1946.3313   -5.0951082   -993.28109   -971.49382  -0.22431654    982.02623    4.8666667    7.8666667 
    9991    372.38659    88945.004   -1946.3553   -5.0951709   -993.27821    -971.4164  -0.22431559    982.00221    4.8666667    7.8666667 
    9992    371.88977    88792.724   -1946.3966    -5.095279   -993.27715   -971.43429  -0.22431395     982.0064    4.8666667    7.8666667 
    9993    372.98681    88838.603   -1946.4349   -5.0953793   -993.29129    -971.5125  -0.22431243    982.03856    4.8666667    7.8666667 
    9994    374.89365    89003.913   -1946.4781   -5.0954924   -993.34053   -971.60038  -0.22431072    982.09861    4.8666667    7.8666667 
    9995    374.23807    89351.996    -1946.551   -5.0956833   -993.33775   -971.64377  -0.22430783    982.10869    4.8666667    7.8666667 
    9996    372.29294    89236.938   -1946.5702   -5.0957334   -993.32154   -971.58336  -0.22430707    982.07993    4.8666667    7.8666667 
    9997    370.50391    88673.004   -1946.5623   -5.0957128   -993.28671   -971.52218  -0.22430738    982.03767    4.8666667    7.8666667 
    9998    369.34463    88542.611   -1946.5767   -5.0957505   -993.24765   -971.51858  -0.22430681     982.0086    4.8666667    7.8666667 
    9999     368.6515    88475.631    -1946.702   -5.0960786    -993.3117    -971.5457  -0.22430184    982.06188    4.8666667    7.8666667 
   10000    367.52198    88293.789   -1946.7309   -5.0961543   -993.27259   -971.55811  -0.22430069    982.03726    4.8666667    7.8666667 
Loop time of 112.997 on 1 procs for 10000 steps with 382 atoms

Performance: 7.646 ns/day, 3.139 hours/ns, 88.498 timesteps/s
99.8% CPU use with 1 MPI tasks x no OpenMP threads

MPI task timing breakdown:
Section |  min time  |  avg time  |  max time  |%varavg| %total
---------------------------------------------------------------
Pair    | 110.84     | 110.84     | 110.84     |   0.0 | 98.09
Bond    | 0.0074383  | 0.0074383  | 0.0074383  |   0.0 |  0.01
Neigh   | 0.069647   | 0.069647   | 0.069647   |   0.0 |  0.06
Comm    | 0.14582    | 0.14582    | 0.14582    |   0.0 |  0.13
Output  | 1.6168     | 1.6168     | 1.6168     |   0.0 |  1.43
Modify  | 0.22595    | 0.22595    | 0.22595    |   0.0 |  0.20
Other   |            | 0.09369    |            |       |  0.08

Nlocal:    382 ave 382 max 382 min
Histogram: 1 0 0 0 0 0 0 0 0 0
Nghost:    2008 ave 2008 max 2008 min
Histogram: 1 0 0 0 0 0 0 0 0 0
Neighs:    20816 ave 20816 max 20816 min
Histogram: 1 0 0 0 0 0 0 0 0 0
FullNghs:  41632 ave 41632 max 41632 min
Histogram: 1 0 0 0 0 0 0 0 0 0

Total # of neighbors = 41632
Ave neighs/atom = 108.984
Ave special neighs/atom = 0.848168
Neighbor list builds = 35
Dangerous builds = 0

#--------------------Print flag order to show simulation is successful
print                "SIMULATION IS SUCCESSFUL DONE"
SIMULATION IS SUCCESSFUL DONE
Total wall time: 0:02:11
