ITEM: TIMESTEP
0
ITEM: NUMBER OF ATOMS
32
ITEM: BOX BOUNDS pp pp pp
-4.5700000000000003e+00 1.0029999999999999e+01
-4.5700000000000003e+00 1.0029999999999999e+01
-4.5700000000000003e+00 1.0029999999999999e+01
ITEM: ATOMS id type xs ys zs
1 1 0.313014 0.437671 0.437671
2 1 0.313014 0.437671 0.686986
9 1 0.437671 0.437671 0.313014
10 1 0.437671 0.437671 0.562329
17 1 0.437671 0.313014 0.437671
18 1 0.437671 0.313014 0.686986
25 2 0.313014 0.313014 0.313014
26 2 0.313014 0.313014 0.562329
5 1 0.562329 0.437671 0.437671
6 1 0.562329 0.437671 0.686986
13 1 0.686986 0.437671 0.313014
14 1 0.686986 0.437671 0.562329
21 1 0.686986 0.313014 0.437671
22 1 0.686986 0.313014 0.686986
29 2 0.562329 0.313014 0.313014
30 2 0.562329 0.313014 0.562329
3 1 0.313014 0.686986 0.437671
4 1 0.313014 0.686986 0.686986
11 1 0.437671 0.686986 0.313014
12 1 0.437671 0.686986 0.562329
19 1 0.437671 0.562329 0.437671
20 1 0.437671 0.562329 0.686986
27 2 0.313014 0.562329 0.313014
28 2 0.313014 0.562329 0.562329
7 1 0.562329 0.686986 0.437671
8 1 0.562329 0.686986 0.686986
15 1 0.686986 0.686986 0.313014
16 1 0.686986 0.686986 0.562329
23 1 0.686986 0.562329 0.437671
24 1 0.686986 0.562329 0.686986
31 2 0.562329 0.562329 0.313014
32 2 0.562329 0.562329 0.562329
ITEM: TIMESTEP
72
ITEM: NUMBER OF ATOMS
32
ITEM: BOX BOUNDS pp pp pp
-4.5700000000000003e+00 1.0029999999999999e+01
-4.5700000000000003e+00 1.0029999999999999e+01
-4.5700000000000003e+00 1.0029999999999999e+01
ITEM: ATOMS id type xs ys zs
1 1 0.276267 0.458033 0.458033
2 1 0.316839 0.429901 0.674408
9 1 0.458033 0.458033 0.276267
10 1 0.428069 0.428069 0.556844
17 1 0.458033 0.276267 0.458033
18 1 0.429901 0.316839 0.674408
25 2 0.342414 0.342414 0.342414
26 2 0.3074 0.3074 0.542907
5 1 0.556844 0.428069 0.428069
6 1 0.543253 0.434452 0.703965
13 1 0.674408 0.429901 0.316839
14 1 0.703965 0.434452 0.543253
21 1 0.674408 0.316839 0.429901
22 1 0.689927 0.386859 0.689927
29 2 0.542907 0.3074 0.3074
30 2 0.578857 0.321201 0.578857
3 1 0.316839 0.674408 0.429901
4 1 0.386859 0.689927 0.689927
11 1 0.429901 0.674408 0.316839
12 1 0.434452 0.703965 0.543253
19 1 0.428069 0.556844 0.428069
20 1 0.434452 0.543253 0.703965
27 2 0.3074 0.542907 0.3074
28 2 0.321201 0.578857 0.578857
7 1 0.543253 0.703965 0.434452
8 1 0.54659 0.671356 0.671356
15 1 0.689927 0.689927 0.386859
16 1 0.671356 0.671356 0.54659
23 1 0.703965 0.543253 0.434452
24 1 0.671356 0.54659 0.671356
31 2 0.578857 0.578857 0.321201
32 2 0.553997 0.553997 0.553997
