ITEM: TIMESTEP
0
ITEM: NUMBER OF ATOMS
64
ITEM: BOX BOUNDS pp pp pp
-4.0700010000000004e+00 1.2130000000000001e+01
-4.0700010000000004e+00 1.2130000000000001e+01
-4.0700010000000004e+00 1.2130000000000001e+01
ITEM: ATOMS id type xs ys zs
1 2 0.464097 0.480121 0.379279
2 2 0.408731 0.438521 0.461839
9 2 0.413428 0.410757 0.54474
17 2 0.404242 0.280665 0.345449
18 2 0.43047 0.395193 0.553959
25 2 0.40316 0.441692 0.453235
26 2 0.432845 0.380294 0.612675
34 2 0.412491 0.430588 0.476186
41 2 0.43438 0.467966 0.44578
49 1 0.347658 0.336714 0.370191
50 1 0.433273 0.428577 0.589875
57 1 0.42622 0.479116 0.393039
58 1 0.307554 0.362156 0.644655
13 2 0.457042 0.45542 0.368363
29 2 0.479588 0.3399 0.436891
20 2 0.400184 0.450255 0.559243
33 2 0.58527 0.379412 0.297441
42 2 0.519632 0.437635 0.617323
5 2 0.733118 0.428499 0.405946
6 2 0.716236 0.362816 0.416273
14 2 0.549367 0.488168 0.678178
21 2 0.540589 0.291386 0.453024
22 2 0.589048 0.325017 0.346798
30 2 0.574017 0.407125 0.636861
37 2 0.56327 0.322764 0.402053
38 2 0.548942 0.294438 0.461393
45 2 0.627014 0.48418 0.462687
46 2 0.600875 0.43681 0.647738
53 1 0.671154 0.349683 0.392184
54 1 0.690998 0.347474 0.474286
61 1 0.735519 0.428771 0.4425
62 1 0.702189 0.402605 0.674113
35 2 0.515594 0.488282 0.299066
24 2 0.621147 0.433322 0.551779
39 2 0.627144 0.487828 0.460289
40 2 0.640712 0.4713 0.469741
10 2 0.327473 0.621792 0.7017
3 2 0.420771 0.634294 0.418754
4 2 0.456889 0.605413 0.574459
11 2 0.284641 0.578049 0.541926
12 2 0.293962 0.693261 0.553621
19 2 0.360889 0.619285 0.389807
27 2 0.318315 0.516524 0.645615
28 2 0.288928 0.573295 0.559089
36 2 0.487641 0.569238 0.59534
43 2 0.387291 0.74395 0.585459
44 2 0.310862 0.683462 0.559489
51 1 0.455663 0.731708 0.31884
52 1 0.434932 0.726966 0.565695
59 1 0.357385 0.535532 0.557886
60 1 0.348192 0.67793 0.629991
15 2 0.473783 0.628073 0.56174
31 2 0.426012 0.634906 0.429215
32 2 0.488646 0.590734 0.596093
7 2 0.641029 0.53968 0.391299
8 2 0.70857 0.509474 0.571286
16 2 0.506467 0.608987 0.581209
23 2 0.598592 0.515908 0.415575
47 2 0.539677 0.653318 0.416714
48 2 0.572375 0.711399 0.506806
55 1 0.641226 0.621959 0.406816
56 1 0.71796 0.520553 0.583067
63 1 0.555616 0.692294 0.462857
64 1 0.589021 0.616567 0.654579
ITEM: TIMESTEP
100
ITEM: NUMBER OF ATOMS
64
ITEM: BOX BOUNDS pp pp pp
-4.0700010000000004e+00 1.2130000000000001e+01
-4.0700010000000004e+00 1.2130000000000001e+01
-4.0700010000000004e+00 1.2130000000000001e+01
ITEM: ATOMS id type xs ys zs
1 2 0.460906 0.47767 0.378142
2 2 0.408228 0.439177 0.458817
9 2 0.41369 0.40987 0.548581
17 2 0.404978 0.279894 0.342846
18 2 0.431086 0.398282 0.556228
25 2 0.405356 0.442677 0.45532
26 2 0.434078 0.379038 0.609239
34 2 0.415208 0.434042 0.477326
41 2 0.435529 0.470135 0.444611
49 1 0.354389 0.341741 0.36621
50 1 0.437598 0.438127 0.597588
57 1 0.434045 0.483894 0.402331
58 1 0.292939 0.366596 0.639974
13 2 0.451229 0.455565 0.369762
29 2 0.485028 0.340679 0.432805
20 2 0.39557 0.445789 0.558721
33 2 0.588354 0.38085 0.293056
42 2 0.523733 0.434254 0.617579
5 2 0.733574 0.427154 0.407211
6 2 0.714768 0.366973 0.41678
14 2 0.550058 0.487871 0.679138
21 2 0.540095 0.289752 0.45627
22 2 0.589114 0.32731 0.340974
30 2 0.574864 0.403986 0.647782
37 2 0.559877 0.321147 0.402473
38 2 0.54749 0.295239 0.459809
45 2 0.622689 0.501743 0.475149
46 2 0.601003 0.438984 0.642264
53 1 0.669761 0.348333 0.395167
54 1 0.693065 0.345228 0.468166
61 1 0.734717 0.42864 0.441868
62 1 0.70336 0.399013 0.674892
35 2 0.516224 0.488758 0.302268
24 2 0.622307 0.429613 0.553756
39 2 0.635238 0.483067 0.451755
40 2 0.641879 0.470652 0.480831
10 2 0.328667 0.625579 0.70128
3 2 0.421989 0.636238 0.417716
4 2 0.458379 0.603279 0.574149
11 2 0.282841 0.576741 0.543515
12 2 0.292123 0.692551 0.552995
19 2 0.357217 0.620974 0.388902
27 2 0.32412 0.518429 0.650046
28 2 0.288239 0.57439 0.55779
36 2 0.488149 0.569881 0.593308
43 2 0.387911 0.743536 0.583324
44 2 0.30276 0.678464 0.559193
51 1 0.46177 0.738529 0.321456
52 1 0.43595 0.729101 0.559544
59 1 0.351353 0.533752 0.559182
60 1 0.35077 0.678167 0.626708
15 2 0.474004 0.626503 0.563493
31 2 0.422489 0.637464 0.427474
32 2 0.487845 0.590375 0.59541
7 2 0.633143 0.534531 0.391221
8 2 0.708927 0.507377 0.572978
16 2 0.505356 0.606963 0.580801
23 2 0.59819 0.513721 0.413237
47 2 0.53827 0.65224 0.416112
48 2 0.573532 0.708292 0.500014
55 1 0.645868 0.622355 0.39521
56 1 0.729965 0.512891 0.580372
63 1 0.559172 0.689429 0.464977
64 1 0.587903 0.614174 0.657646
ITEM: TIMESTEP
200
ITEM: NUMBER OF ATOMS
64
ITEM: BOX BOUNDS pp pp pp
-4.0700010000000004e+00 1.2130000000000001e+01
-4.0700010000000004e+00 1.2130000000000001e+01
-4.0700010000000004e+00 1.2130000000000001e+01
ITEM: ATOMS id type xs ys zs
1 2 0.449242 0.467821 0.377344
2 2 0.404523 0.441972 0.453478
9 2 0.415333 0.405971 0.563898
17 2 0.406738 0.277608 0.334595
18 2 0.427359 0.401232 0.560333
25 2 0.405197 0.443931 0.459713
26 2 0.435048 0.374883 0.604613
34 2 0.416173 0.442147 0.47792
41 2 0.438053 0.476139 0.436552
49 1 0.371563 0.354248 0.359051
50 1 0.432709 0.45299 0.615814
57 1 0.446707 0.492162 0.42028
58 1 0.267585 0.386274 0.62214
13 2 0.431943 0.455399 0.373856
29 2 0.501666 0.348059 0.430084
20 2 0.397768 0.437265 0.563319
33 2 0.597111 0.379474 0.286681
42 2 0.524763 0.424958 0.619007
5 2 0.7366 0.423215 0.412255
6 2 0.715576 0.370554 0.417846
14 2 0.549626 0.486667 0.684005
21 2 0.526358 0.27288 0.465825
22 2 0.593174 0.329131 0.32664
30 2 0.567215 0.408584 0.662244
37 2 0.558653 0.320529 0.404258
38 2 0.550846 0.308455 0.452787
45 2 0.625577 0.52455 0.483315
46 2 0.611846 0.446979 0.636464
53 1 0.684816 0.350207 0.392051
54 1 0.696929 0.333768 0.452826
61 1 0.723987 0.42568 0.437698
62 1 0.7103 0.389196 0.682322
35 2 0.51823 0.495012 0.304948
24 2 0.626948 0.418026 0.560259
39 2 0.639985 0.477342 0.458833
40 2 0.646981 0.466014 0.472445
10 2 0.331852 0.634603 0.698635
3 2 0.426099 0.641753 0.415646
4 2 0.460582 0.601946 0.564173
11 2 0.280567 0.575208 0.547583
12 2 0.291211 0.689558 0.551338
19 2 0.348361 0.624382 0.387669
27 2 0.335218 0.517893 0.664072
28 2 0.284556 0.575399 0.554923
36 2 0.485751 0.569348 0.593811
43 2 0.389884 0.745687 0.574676
44 2 0.284204 0.664972 0.556206
51 1 0.469626 0.753496 0.331781
52 1 0.443405 0.731294 0.549978
59 1 0.341597 0.531686 0.565047
60 1 0.346307 0.67951 0.622904
15 2 0.473812 0.621493 0.574625
31 2 0.410384 0.642513 0.421421
32 2 0.49299 0.593955 0.591447
7 2 0.623814 0.537239 0.396546
8 2 0.710228 0.495765 0.573245
16 2 0.500005 0.602636 0.584538
23 2 0.599145 0.522299 0.418643
47 2 0.53545 0.65031 0.413386
48 2 0.576376 0.699744 0.482102
55 1 0.658798 0.620153 0.373328
56 1 0.74676 0.498828 0.579105
63 1 0.566579 0.684177 0.466612
64 1 0.588016 0.605321 0.662691
ITEM: TIMESTEP
300
ITEM: NUMBER OF ATOMS
64
ITEM: BOX BOUNDS pp pp pp
-4.0700010000000004e+00 1.2130000000000001e+01
-4.0700010000000004e+00 1.2130000000000001e+01
-4.0700010000000004e+00 1.2130000000000001e+01
ITEM: ATOMS id type xs ys zs
1 2 0.441745 0.462437 0.382276
2 2 0.406657 0.446927 0.449718
9 2 0.416751 0.400131 0.579211
17 2 0.414739 0.280849 0.326925
18 2 0.43139 0.396307 0.565953
25 2 0.401295 0.447242 0.45962
26 2 0.439795 0.375388 0.605859
34 2 0.414967 0.453748 0.471584
41 2 0.433439 0.480016 0.430166
49 1 0.38702 0.364106 0.348885
50 1 0.425626 0.46405 0.627385
57 1 0.439459 0.498855 0.427175
58 1 0.257637 0.403703 0.617948
13 2 0.416082 0.457285 0.381851
29 2 0.509224 0.341551 0.427627
20 2 0.403684 0.427471 0.570613
33 2 0.610985 0.381488 0.285234
42 2 0.526147 0.418539 0.615173
5 2 0.742043 0.412854 0.416855
6 2 0.714562 0.372139 0.41993
14 2 0.545312 0.490592 0.691764
21 2 0.51982 0.266753 0.465969
22 2 0.593919 0.339837 0.316809
30 2 0.571007 0.424711 0.671903
37 2 0.552558 0.319011 0.399271
38 2 0.546141 0.304973 0.453626
45 2 0.640004 0.526226 0.491227
46 2 0.608194 0.447889 0.639924
53 1 0.685002 0.342991 0.400356
54 1 0.693934 0.336921 0.435764
61 1 0.715801 0.413912 0.432868
62 1 0.719793 0.381342 0.679481
35 2 0.522304 0.502343 0.305143
24 2 0.630762 0.397847 0.559857
39 2 0.639723 0.481895 0.450855
40 2 0.650422 0.466997 0.470322
10 2 0.331227 0.647055 0.693805
3 2 0.429378 0.645482 0.415134
4 2 0.453516 0.600253 0.56269
11 2 0.282733 0.565116 0.542939
12 2 0.288102 0.687677 0.553043
19 2 0.337106 0.627962 0.385275
27 2 0.341344 0.512309 0.669982
28 2 0.279834 0.587034 0.559893
36 2 0.480172 0.562388 0.591311
43 2 0.394764 0.74818 0.560347
44 2 0.276267 0.648628 0.555269
51 1 0.470392 0.772539 0.35313
52 1 0.450056 0.731134 0.547101
59 1 0.351533 0.534373 0.55966
60 1 0.342995 0.677501 0.619346
15 2 0.474967 0.622472 0.575207
31 2 0.398597 0.642667 0.417174
32 2 0.501847 0.590606 0.597092
7 2 0.61526 0.532732 0.408955
8 2 0.719429 0.487148 0.575468
16 2 0.500703 0.610622 0.582725
23 2 0.603449 0.52506 0.424886
47 2 0.531011 0.652769 0.409587
48 2 0.568611 0.712556 0.460657
55 1 0.666806 0.610874 0.376055
56 1 0.754818 0.488117 0.576786
63 1 0.574148 0.671258 0.471978
64 1 0.582256 0.595286 0.664312
ITEM: TIMESTEP
400
ITEM: NUMBER OF ATOMS
64
ITEM: BOX BOUNDS pp pp pp
-4.0700010000000004e+00 1.2130000000000001e+01
-4.0700010000000004e+00 1.2130000000000001e+01
-4.0700010000000004e+00 1.2130000000000001e+01
ITEM: ATOMS id type xs ys zs
1 2 0.436765 0.468632 0.391074
2 2 0.413657 0.450248 0.441042
9 2 0.42017 0.394717 0.589642
17 2 0.419464 0.288924 0.317912
18 2 0.436083 0.390709 0.573178
25 2 0.396864 0.449478 0.451062
26 2 0.439397 0.37173 0.609143
34 2 0.415577 0.45407 0.456283
41 2 0.424412 0.476979 0.44241
49 1 0.394917 0.360282 0.33787
50 1 0.424253 0.469889 0.644401
57 1 0.418873 0.504633 0.444296
58 1 0.253251 0.411245 0.612011
13 2 0.408815 0.461128 0.393324
29 2 0.507971 0.339346 0.427659
20 2 0.411976 0.41019 0.578619
33 2 0.621651 0.385069 0.290661
42 2 0.529928 0.424816 0.608665
5 2 0.748667 0.398611 0.418154
6 2 0.715163 0.371274 0.421976
14 2 0.546733 0.495671 0.695493
21 2 0.518343 0.271302 0.461183
22 2 0.595758 0.35079 0.312583
30 2 0.580529 0.446589 0.675639
37 2 0.546756 0.322324 0.390914
38 2 0.534117 0.301352 0.44855
45 2 0.644745 0.528846 0.495898
46 2 0.610259 0.448974 0.643947
53 1 0.677753 0.335029 0.412111
54 1 0.701996 0.338827 0.425998
61 1 0.717617 0.407055 0.439958
62 1 0.728546 0.370626 0.676755
35 2 0.524531 0.50803 0.305646
24 2 0.632667 0.374078 0.562863
39 2 0.633743 0.488887 0.45804
40 2 0.647309 0.468774 0.477758
10 2 0.325784 0.661486 0.684543
3 2 0.422661 0.650936 0.407413
4 2 0.456272 0.600511 0.561297
11 2 0.279887 0.542674 0.552189
12 2 0.284361 0.68752 0.553629
19 2 0.329913 0.629018 0.382071
27 2 0.34454 0.517561 0.672063
28 2 0.283327 0.601971 0.554253
36 2 0.480733 0.569404 0.583703
43 2 0.40395 0.745672 0.549287
44 2 0.280886 0.636478 0.561557
51 1 0.466634 0.790723 0.371259
52 1 0.448592 0.716183 0.554951
59 1 0.366863 0.539305 0.550408
60 1 0.330021 0.669048 0.617719
15 2 0.468284 0.618508 0.567759
31 2 0.396297 0.648102 0.411794
32 2 0.507209 0.586424 0.599374
7 2 0.612206 0.528713 0.419856
8 2 0.725431 0.478361 0.573178
16 2 0.502111 0.608777 0.57686
23 2 0.602657 0.521873 0.427902
47 2 0.522534 0.657541 0.403958
48 2 0.564748 0.704579 0.457329
55 1 0.676885 0.617912 0.382979
56 1 0.758002 0.477713 0.575289
63 1 0.56786 0.67352 0.448905
64 1 0.573391 0.588123 0.665951
ITEM: TIMESTEP
500
ITEM: NUMBER OF ATOMS
64
ITEM: BOX BOUNDS pp pp pp
-4.0700010000000004e+00 1.2130000000000001e+01
-4.0700010000000004e+00 1.2130000000000001e+01
-4.0700010000000004e+00 1.2130000000000001e+01
ITEM: ATOMS id type xs ys zs
1 2 0.429195 0.47815 0.404
2 2 0.412761 0.455613 0.426218
9 2 0.424643 0.393668 0.59517
17 2 0.415333 0.299807 0.302808
18 2 0.43498 0.39231 0.588927
25 2 0.396413 0.455646 0.441917
26 2 0.437269 0.373498 0.608801
34 2 0.410061 0.45196 0.435855
41 2 0.413983 0.474413 0.460408
49 1 0.401023 0.34468 0.323194
50 1 0.423798 0.486149 0.651611
57 1 0.386099 0.500816 0.450171
58 1 0.271384 0.393743 0.634469
13 2 0.411178 0.461673 0.404997
29 2 0.510301 0.342554 0.425425
20 2 0.420687 0.389202 0.587301
33 2 0.623219 0.38634 0.293607
42 2 0.527188 0.436642 0.61376
5 2 0.749326 0.382724 0.421208
6 2 0.720971 0.367477 0.426395
14 2 0.556211 0.499665 0.692792
21 2 0.510772 0.275165 0.453805
22 2 0.599973 0.355614 0.310815
30 2 0.58011 0.470163 0.683749
37 2 0.552538 0.331517 0.388648
38 2 0.532922 0.301149 0.449855
45 2 0.650143 0.528525 0.490111
46 2 0.608663 0.449808 0.642277
53 1 0.67407 0.341368 0.415674
54 1 0.704177 0.337757 0.432087
61 1 0.712559 0.399801 0.436255
62 1 0.736403 0.363468 0.679782
35 2 0.52587 0.516488 0.29961
24 2 0.635586 0.352648 0.564682
39 2 0.641549 0.482677 0.462158
40 2 0.64997 0.470316 0.475993
10 2 0.319842 0.666964 0.670301
3 2 0.419845 0.65305 0.404443
4 2 0.45585 0.595697 0.562046
11 2 0.284292 0.530006 0.554773
12 2 0.28631 0.6873 0.551952
19 2 0.320932 0.630402 0.37811
27 2 0.351048 0.518475 0.681647
28 2 0.273224 0.608238 0.55148
36 2 0.480134 0.570966 0.573784
43 2 0.410657 0.749075 0.543999
44 2 0.290986 0.634154 0.56056
51 1 0.455731 0.792609 0.371792
52 1 0.442617 0.725044 0.549568
59 1 0.345956 0.525746 0.558926
60 1 0.331857 0.654501 0.616182
15 2 0.467837 0.613345 0.565975
31 2 0.390996 0.650916 0.405323
32 2 0.504811 0.586812 0.591641
7 2 0.61951 0.529256 0.418457
8 2 0.729016 0.46762 0.573781
16 2 0.501758 0.601588 0.576906
23 2 0.601444 0.514705 0.436754
47 2 0.512569 0.661923 0.410384
48 2 0.565534 0.705487 0.461025
55 1 0.690162 0.631477 0.390035
56 1 0.759524 0.469015 0.574297
63 1 0.558064 0.675571 0.454101
64 1 0.57344 0.586187 0.667848
ITEM: TIMESTEP
600
ITEM: NUMBER OF ATOMS
64
ITEM: BOX BOUNDS pp pp pp
-4.0700010000000004e+00 1.2130000000000001e+01
-4.0700010000000004e+00 1.2130000000000001e+01
-4.0700010000000004e+00 1.2130000000000001e+01
ITEM: ATOMS id type xs ys zs
1 2 0.427063 0.478543 0.418628
2 2 0.403118 0.45896 0.411411
9 2 0.432735 0.385915 0.60316
17 2 0.417407 0.312848 0.29431
18 2 0.429794 0.393111 0.596275
25 2 0.397186 0.457967 0.433113
26 2 0.434448 0.372392 0.611706
34 2 0.398224 0.454963 0.4113
41 2 0.407984 0.483134 0.463363
49 1 0.419185 0.334929 0.312452
50 1 0.405891 0.506174 0.666925
57 1 0.363105 0.498758 0.456249
58 1 0.281622 0.390788 0.663207
13 2 0.417063 0.45684 0.412898
29 2 0.516676 0.345351 0.423406
20 2 0.426018 0.385313 0.592434
33 2 0.623563 0.382693 0.296334
42 2 0.528274 0.439089 0.614964
5 2 0.746742 0.366997 0.426392
6 2 0.719494 0.36201 0.432375
14 2 0.567225 0.498318 0.686162
21 2 0.502964 0.277967 0.446776
22 2 0.595029 0.356746 0.307554
30 2 0.576201 0.487577 0.684023
37 2 0.561827 0.340889 0.395113
38 2 0.531303 0.303982 0.445752
45 2 0.65627 0.529952 0.486312
46 2 0.607445 0.45149 0.651859
53 1 0.67619 0.338443 0.415771
54 1 0.711011 0.343901 0.435842
61 1 0.712895 0.39945 0.440562
62 1 0.738328 0.349262 0.676304
35 2 0.535857 0.522583 0.296234
24 2 0.631747 0.329437 0.56654
39 2 0.647466 0.489137 0.454054
40 2 0.65628 0.473337 0.477185
10 2 0.308804 0.666303 0.658749
3 2 0.417734 0.65482 0.411616
4 2 0.457773 0.593413 0.562235
11 2 0.285352 0.515258 0.572143
12 2 0.288604 0.685207 0.552668
19 2 0.313614 0.622674 0.373977
27 2 0.357141 0.519001 0.697441
28 2 0.268198 0.60854 0.542779
36 2 0.47686 0.572117 0.570012
43 2 0.405548 0.757835 0.543844
44 2 0.301629 0.630631 0.566416
51 1 0.455812 0.794557 0.369093
52 1 0.444342 0.731541 0.545234
59 1 0.342537 0.52237 0.563303
60 1 0.334371 0.650069 0.622379
15 2 0.469199 0.611321 0.567604
31 2 0.391963 0.65215 0.397715
32 2 0.498403 0.587635 0.586817
7 2 0.620122 0.530681 0.417376
8 2 0.73082 0.457817 0.574662
16 2 0.49694 0.601074 0.575143
23 2 0.604367 0.520937 0.43299
47 2 0.509097 0.662496 0.403655
48 2 0.566021 0.706866 0.457816
55 1 0.698583 0.635608 0.401701
56 1 0.757132 0.457862 0.575373
63 1 0.560974 0.67328 0.457906
64 1 0.579683 0.591957 0.663079
ITEM: TIMESTEP
700
ITEM: NUMBER OF ATOMS
64
ITEM: BOX BOUNDS pp pp pp
-4.0700010000000004e+00 1.2130000000000001e+01
-4.0700010000000004e+00 1.2130000000000001e+01
-4.0700010000000004e+00 1.2130000000000001e+01
ITEM: ATOMS id type xs ys zs
1 2 0.41985 0.473629 0.418517
2 2 0.400146 0.460212 0.41187
9 2 0.437365 0.379814 0.610856
17 2 0.415799 0.315485 0.287434
18 2 0.438463 0.391805 0.599872
25 2 0.399739 0.459873 0.425103
26 2 0.438174 0.380432 0.604164
34 2 0.401592 0.461888 0.398437
41 2 0.399975 0.487935 0.451466
49 1 0.442046 0.334467 0.295407
50 1 0.399793 0.554127 0.693875
57 1 0.349862 0.491523 0.447175
58 1 0.295108 0.385042 0.679333
13 2 0.417343 0.454579 0.414311
29 2 0.519568 0.348682 0.422375
20 2 0.429516 0.385134 0.597634
33 2 0.626826 0.382328 0.29749
42 2 0.528243 0.430356 0.603224
5 2 0.739418 0.353231 0.431391
6 2 0.710404 0.367517 0.440058
14 2 0.566754 0.499686 0.68507
21 2 0.495574 0.282822 0.44117
22 2 0.59145 0.355139 0.307874
30 2 0.581068 0.488527 0.673789
37 2 0.563879 0.346503 0.403262
38 2 0.532546 0.304643 0.446424
45 2 0.657455 0.534327 0.489879
46 2 0.607881 0.458329 0.656611
53 1 0.682658 0.342892 0.426761
54 1 0.70904 0.349807 0.437731
61 1 0.694333 0.388966 0.443233
62 1 0.738574 0.337386 0.671804
35 2 0.555 0.526862 0.294718
24 2 0.627963 0.303386 0.572736
39 2 0.641851 0.500129 0.455051
40 2 0.658394 0.476792 0.484013
10 2 0.30635 0.667751 0.653566
3 2 0.416805 0.658896 0.41078
4 2 0.459256 0.592363 0.558285
11 2 0.28878 0.505998 0.580506
12 2 0.291144 0.682593 0.557541
19 2 0.305158 0.622664 0.375312
27 2 0.371552 0.519146 0.71609
28 2 0.267338 0.606271 0.536829
36 2 0.472852 0.57628 0.564431
43 2 0.39929 0.762674 0.544752
44 2 0.308063 0.615932 0.573423
51 1 0.463348 0.79611 0.360869
52 1 0.446229 0.725247 0.542037
59 1 0.331406 0.510789 0.566539
60 1 0.331679 0.639531 0.627898
15 2 0.470148 0.609665 0.564269
31 2 0.394084 0.6569 0.398804
32 2 0.495806 0.589738 0.584477
7 2 0.616207 0.5325 0.423967
8 2 0.729527 0.449205 0.575444
16 2 0.495379 0.604281 0.573529
23 2 0.600317 0.522895 0.43876
47 2 0.505167 0.660175 0.395352
48 2 0.563744 0.707168 0.449738
55 1 0.708127 0.642686 0.40739
56 1 0.753105 0.449034 0.575159
63 1 0.563891 0.676452 0.447885
64 1 0.585915 0.598485 0.65653
ITEM: TIMESTEP
800
ITEM: NUMBER OF ATOMS
64
ITEM: BOX BOUNDS pp pp pp
-4.0700010000000004e+00 1.2130000000000001e+01
-4.0700010000000004e+00 1.2130000000000001e+01
-4.0700010000000004e+00 1.2130000000000001e+01
ITEM: ATOMS id type xs ys zs
1 2 0.411173 0.470332 0.412233
2 2 0.404015 0.459605 0.414411
9 2 0.443893 0.377279 0.612735
17 2 0.412615 0.314089 0.289331
18 2 0.443036 0.387846 0.598508
25 2 0.399079 0.466228 0.41942
26 2 0.434599 0.387305 0.600113
34 2 0.412607 0.464866 0.3916
41 2 0.393849 0.490123 0.433641
49 1 0.437645 0.347156 0.297284
50 1 0.394392 0.587358 0.698579
57 1 0.326714 0.491141 0.43585
58 1 0.304435 0.389359 0.685326
13 2 0.412632 0.457036 0.41458
29 2 0.51785 0.347681 0.42039
20 2 0.433432 0.384432 0.598162
33 2 0.630335 0.388991 0.300725
42 2 0.515792 0.421114 0.605158
5 2 0.730381 0.336473 0.434076
6 2 0.696726 0.370118 0.454301
14 2 0.573185 0.501509 0.688344
21 2 0.496432 0.284584 0.437857
22 2 0.596137 0.357157 0.312488
30 2 0.587207 0.494824 0.672002
37 2 0.561568 0.339651 0.409548
38 2 0.527971 0.308152 0.439367
45 2 0.655764 0.536676 0.493319
46 2 0.612173 0.468532 0.652835
53 1 0.692927 0.34542 0.452877
54 1 0.715644 0.365619 0.443992
61 1 0.687178 0.381735 0.443197
62 1 0.73608 0.330535 0.671301
35 2 0.58011 0.530037 0.29757
24 2 0.62374 0.280302 0.577606
39 2 0.642002 0.504456 0.456135
40 2 0.649914 0.487767 0.486845
10 2 0.307546 0.663353 0.652019
3 2 0.413526 0.661494 0.403498
4 2 0.462256 0.593598 0.556028
11 2 0.301452 0.501343 0.582566
12 2 0.294572 0.67702 0.559229
19 2 0.301777 0.628646 0.38117
27 2 0.387923 0.513423 0.732204
28 2 0.268943 0.60327 0.539452
36 2 0.470974 0.580997 0.561829
43 2 0.399509 0.762927 0.540575
44 2 0.307921 0.593531 0.579746
51 1 0.464192 0.795469 0.345782
52 1 0.44778 0.74137 0.536491
59 1 0.321769 0.502957 0.57776
60 1 0.340543 0.634072 0.627711
15 2 0.469284 0.606434 0.55911
31 2 0.390114 0.659529 0.402375
32 2 0.490271 0.593411 0.579353
7 2 0.617317 0.532185 0.42822
8 2 0.729886 0.437278 0.569334
16 2 0.490517 0.603491 0.571276
23 2 0.606965 0.527988 0.435846
47 2 0.494538 0.659651 0.389827
48 2 0.562807 0.716638 0.448293
55 1 0.709057 0.649773 0.418913
56 1 0.746377 0.436876 0.568805
63 1 0.558916 0.676503 0.444674
64 1 0.589647 0.607907 0.647672
ITEM: TIMESTEP
900
ITEM: NUMBER OF ATOMS
64
ITEM: BOX BOUNDS pp pp pp
-4.0700010000000004e+00 1.2130000000000001e+01
-4.0700010000000004e+00 1.2130000000000001e+01
-4.0700010000000004e+00 1.2130000000000001e+01
ITEM: ATOMS id type xs ys zs
1 2 0.412588 0.474469 0.411042
2 2 0.407241 0.463491 0.411648
9 2 0.446462 0.382215 0.610333
17 2 0.411585 0.313476 0.292666
18 2 0.450066 0.397183 0.595895
25 2 0.400617 0.472606 0.418004
26 2 0.434064 0.381919 0.599325
34 2 0.412113 0.470757 0.391512
41 2 0.397173 0.48882 0.425702
49 1 0.438389 0.349698 0.290321
50 1 0.395243 0.602442 0.695866
57 1 0.253455 0.486127 0.436041
58 1 0.312613 0.379662 0.692352
13 2 0.405078 0.461888 0.408842
29 2 0.51867 0.34863 0.42101
20 2 0.435327 0.391792 0.59534
33 2 0.637283 0.393897 0.302678
42 2 0.502202 0.414753 0.605998
5 2 0.723496 0.313779 0.434494
6 2 0.68511 0.358997 0.461577
14 2 0.587101 0.50882 0.684784
21 2 0.501599 0.285357 0.439809
22 2 0.585951 0.360497 0.316712
30 2 0.584536 0.498671 0.677984
37 2 0.565151 0.343375 0.419632
38 2 0.531102 0.312421 0.438525
45 2 0.657299 0.541401 0.493396
46 2 0.613298 0.475034 0.642771
53 1 0.688579 0.348652 0.450196
54 1 0.715669 0.366991 0.453085
61 1 0.678516 0.369375 0.445161
62 1 0.727339 0.323407 0.671432
35 2 0.601402 0.543091 0.311455
24 2 0.618101 0.270239 0.581315
39 2 0.642845 0.502209 0.457311
40 2 0.642803 0.493967 0.483269
10 2 0.310582 0.663277 0.651797
3 2 0.410657 0.663813 0.401133
4 2 0.463544 0.589325 0.557126
11 2 0.314429 0.494054 0.588068
12 2 0.293165 0.671114 0.563727
19 2 0.303169 0.628889 0.379757
27 2 0.395631 0.50874 0.743745
28 2 0.278222 0.596411 0.537881
36 2 0.468845 0.582163 0.558865
43 2 0.400008 0.758198 0.533498
44 2 0.30899 0.564187 0.575763
51 1 0.453585 0.799075 0.339604
52 1 0.446355 0.734812 0.53714
59 1 0.323245 0.498745 0.57653
60 1 0.343231 0.638686 0.630146
15 2 0.474061 0.609695 0.561903
31 2 0.389183 0.662262 0.399936
32 2 0.488332 0.589658 0.579496
7 2 0.617582 0.533944 0.428163
8 2 0.724828 0.433989 0.569669
16 2 0.488291 0.60771 0.565974
23 2 0.605965 0.530459 0.436067
47 2 0.484187 0.663657 0.382105
48 2 0.563963 0.716875 0.443793
55 1 0.712553 0.659511 0.428066
56 1 0.742769 0.433183 0.569089
63 1 0.558176 0.683387 0.441946
64 1 0.59888 0.613178 0.650767
ITEM: TIMESTEP
1000
ITEM: NUMBER OF ATOMS
64
ITEM: BOX BOUNDS pp pp pp
-4.0700010000000004e+00 1.2130000000000001e+01
-4.0700010000000004e+00 1.2130000000000001e+01
-4.0700010000000004e+00 1.2130000000000001e+01
ITEM: ATOMS id type xs ys zs
1 2 0.417506 0.480123 0.408342
2 2 0.407909 0.467737 0.407314
9 2 0.45186 0.393358 0.604378
17 2 0.405835 0.31162 0.293729
18 2 0.445154 0.400665 0.598638
25 2 0.404871 0.470936 0.414142
26 2 0.432875 0.386538 0.595724
34 2 0.409219 0.471887 0.392452
41 2 0.40995 0.485484 0.422555
49 1 0.428212 0.352197 0.298456
50 1 0.391605 0.598934 0.696451
57 1 0.180169 0.51634 0.46597
58 1 0.321904 0.377078 0.693607
13 2 0.407236 0.459301 0.410244
29 2 0.517698 0.352481 0.419348
20 2 0.441468 0.39419 0.59637
33 2 0.646234 0.391428 0.298846
42 2 0.500036 0.411834 0.605228
5 2 0.713665 0.301195 0.440875
6 2 0.676914 0.349512 0.461643
14 2 0.582264 0.517404 0.675992
21 2 0.501138 0.288104 0.43875
22 2 0.584429 0.367819 0.322091
30 2 0.586957 0.506917 0.681837
37 2 0.565715 0.34536 0.422525
38 2 0.530464 0.311801 0.436888
45 2 0.668549 0.54331 0.504279
46 2 0.619763 0.47763 0.641831
53 1 0.6788 0.357978 0.432265
54 1 0.712294 0.362986 0.456166
61 1 0.674034 0.368767 0.44019
62 1 0.729558 0.326176 0.673702
35 2 0.61085 0.558647 0.321193
24 2 0.61481 0.269426 0.590375
39 2 0.646934 0.50612 0.450516
40 2 0.641932 0.496409 0.492565
10 2 0.312666 0.664738 0.653332
3 2 0.413818 0.670075 0.403185
4 2 0.468286 0.593559 0.557827
11 2 0.305947 0.494796 0.583081
12 2 0.295443 0.662796 0.558735
19 2 0.287494 0.620191 0.377348
27 2 0.399589 0.499505 0.744715
28 2 0.281094 0.594391 0.537022
36 2 0.473656 0.58503 0.557388
43 2 0.39856 0.752026 0.525716
44 2 0.311855 0.533728 0.579307
51 1 0.442356 0.805935 0.347812
52 1 0.445092 0.735858 0.53075
59 1 0.317012 0.496815 0.576985
60 1 0.341351 0.630472 0.630202
15 2 0.476217 0.608144 0.56081
31 2 0.384812 0.66734 0.393545
32 2 0.493306 0.592565 0.579383
7 2 0.628818 0.53027 0.425916
8 2 0.720226 0.426929 0.565424
16 2 0.493315 0.604829 0.569951
23 2 0.603199 0.52513 0.443686
47 2 0.480216 0.667319 0.381885
48 2 0.561001 0.713193 0.435371
55 1 0.714637 0.663908 0.437494
56 1 0.746987 0.424916 0.56326
63 1 0.558922 0.681178 0.438566
64 1 0.589436 0.613128 0.654115
ITEM: TIMESTEP
1100
ITEM: NUMBER OF ATOMS
64
ITEM: BOX BOUNDS pp pp pp
-4.0700010000000004e+00 1.2130000000000001e+01
-4.0700010000000004e+00 1.2130000000000001e+01
-4.0700010000000004e+00 1.2130000000000001e+01
ITEM: ATOMS id type xs ys zs
1 2 0.418694 0.48057 0.410667
2 2 0.407267 0.477291 0.411047
9 2 0.450687 0.393028 0.604363
17 2 0.400764 0.311256 0.293649
18 2 0.440489 0.401618 0.601375
25 2 0.407529 0.473598 0.409614
26 2 0.435565 0.385332 0.597486
34 2 0.411196 0.478504 0.396882
41 2 0.422928 0.487883 0.422922
49 1 0.428903 0.355808 0.298549
58 1 0.311671 0.379212 0.68021
13 2 0.408879 0.455154 0.408192
20 2 0.446413 0.394281 0.597673
21 2 0.496559 0.286789 0.435141
11 2 0.29922 0.490241 0.575788
27 2 0.402654 0.498744 0.746173
59 1 0.305652 0.497565 0.581619
29 2 0.521399 0.357676 0.417506
33 2 0.649869 0.388777 0.297188
42 2 0.50454 0.411849 0.607435
5 2 0.702809 0.295416 0.444154
6 2 0.679499 0.343462 0.455427
22 2 0.580013 0.368944 0.32155
37 2 0.562209 0.34267 0.425401
38 2 0.52255 0.309936 0.431649
46 2 0.622763 0.481324 0.638957
53 1 0.670445 0.365437 0.427863
54 1 0.714497 0.367754 0.450568
61 1 0.668132 0.372885 0.435723
62 1 0.734966 0.321381 0.673229
24 2 0.609354 0.274271 0.598601
40 2 0.644225 0.500373 0.496474
8 2 0.719714 0.420598 0.56521
56 1 0.744666 0.418346 0.561584
57 1 0.159246 0.551225 0.499153
50 1 0.384399 0.580441 0.679234
10 2 0.316076 0.658443 0.649509
3 2 0.414746 0.6717 0.401203
4 2 0.467189 0.594903 0.55726
12 2 0.293785 0.656785 0.551159
19 2 0.261701 0.59899 0.379196
28 2 0.289288 0.606541 0.541249
36 2 0.478124 0.584168 0.557584
44 2 0.298082 0.514567 0.572858
52 1 0.4486 0.744435 0.526054
60 1 0.340714 0.630058 0.628295
15 2 0.478321 0.612403 0.56532
31 2 0.380284 0.667212 0.386288
32 2 0.488705 0.594432 0.576443
16 2 0.504862 0.605894 0.559703
47 2 0.472113 0.670936 0.387394
14 2 0.586523 0.526916 0.663078
30 2 0.595155 0.496705 0.692183
45 2 0.6786 0.553444 0.518728
35 2 0.611146 0.557816 0.329605
39 2 0.65332 0.505168 0.453067
7 2 0.638136 0.529593 0.431303
23 2 0.617489 0.526003 0.443862
48 2 0.564884 0.714087 0.430611
55 1 0.716203 0.671547 0.442367
63 1 0.563991 0.677506 0.439148
64 1 0.592397 0.623156 0.672817
43 2 0.393367 0.74945 0.520033
51 1 0.432837 0.811338 0.352279
ITEM: TIMESTEP
1200
ITEM: NUMBER OF ATOMS
64
ITEM: BOX BOUNDS pp pp pp
-4.0700010000000004e+00 1.2130000000000001e+01
-4.0700010000000004e+00 1.2130000000000001e+01
-4.0700010000000004e+00 1.2130000000000001e+01
ITEM: ATOMS id type xs ys zs
1 2 0.416635 0.480733 0.413961
2 2 0.41309 0.472707 0.411701
9 2 0.449402 0.390261 0.60525
17 2 0.397959 0.316558 0.292212
18 2 0.445339 0.405557 0.605636
25 2 0.41388 0.4815 0.409585
26 2 0.439834 0.379322 0.597683
34 2 0.410772 0.479259 0.401757
41 2 0.427699 0.492475 0.422479
49 1 0.426395 0.360972 0.304307
58 1 0.315797 0.375689 0.682888
13 2 0.404405 0.465988 0.411111
20 2 0.44514 0.395309 0.601332
21 2 0.492943 0.287692 0.43637
11 2 0.286102 0.481297 0.567966
27 2 0.405655 0.508946 0.727466
59 1 0.321907 0.518753 0.589583
29 2 0.526336 0.369389 0.419071
33 2 0.647534 0.39093 0.301568
42 2 0.510451 0.413133 0.603977
5 2 0.693052 0.292537 0.442
6 2 0.684232 0.341161 0.449471
22 2 0.578542 0.36714 0.322818
37 2 0.565235 0.340631 0.427398
38 2 0.520711 0.306923 0.435499
46 2 0.625563 0.475261 0.639627
53 1 0.671737 0.35552 0.42928
54 1 0.718703 0.357005 0.440212
61 1 0.678516 0.377523 0.434172
62 1 0.735011 0.312572 0.672783
24 2 0.606264 0.273042 0.602915
40 2 0.650905 0.49586 0.497882
8 2 0.721834 0.415987 0.566215
56 1 0.74157 0.413323 0.562709
57 1 0.153291 0.564565 0.515639
50 1 0.35869 0.580519 0.669593
10 2 0.316567 0.652692 0.644261
3 2 0.413826 0.675621 0.3889
4 2 0.472838 0.602007 0.557924
12 2 0.28608 0.661885 0.540184
19 2 0.242536 0.576797 0.383442
28 2 0.294959 0.613199 0.546514
36 2 0.4919 0.581798 0.56322
44 2 0.288272 0.502666 0.567961
52 1 0.451873 0.749962 0.526984
60 1 0.336927 0.617544 0.620277
15 2 0.477425 0.606083 0.565658
31 2 0.383041 0.671337 0.378871
32 2 0.478057 0.604713 0.573638
16 2 0.506699 0.598532 0.564455
47 2 0.461439 0.675665 0.387141
14 2 0.59693 0.51641 0.66141
30 2 0.600634 0.482916 0.694433
45 2 0.689579 0.568438 0.537327
35 2 0.599839 0.55046 0.335047
39 2 0.650879 0.503975 0.451901
7 2 0.643463 0.530737 0.425498
23 2 0.618019 0.525456 0.446129
48 2 0.574115 0.722313 0.432721
55 1 0.72615 0.678285 0.440302
63 1 0.577049 0.671806 0.445457
64 1 0.581221 0.633413 0.666384
43 2 0.38709 0.758364 0.520119
51 1 0.410142 0.813155 0.343372
ITEM: TIMESTEP
1300
ITEM: NUMBER OF ATOMS
64
ITEM: BOX BOUNDS pp pp pp
-4.0700010000000004e+00 1.2130000000000001e+01
-4.0700010000000004e+00 1.2130000000000001e+01
-4.0700010000000004e+00 1.2130000000000001e+01
ITEM: ATOMS id type xs ys zs
1 2 0.414949 0.484042 0.407957
2 2 0.418841 0.478046 0.412748
9 2 0.451881 0.392478 0.606283
17 2 0.397321 0.325133 0.293664
18 2 0.452936 0.400785 0.610288
25 2 0.411261 0.478415 0.408478
26 2 0.443526 0.374999 0.598737
34 2 0.411975 0.481755 0.404464
41 2 0.42483 0.489977 0.423541
49 1 0.419868 0.353727 0.308787
58 1 0.318598 0.383478 0.694494
13 2 0.401739 0.463856 0.411507