ITEM: TIMESTEP
0
ITEM: NUMBER OF ATOMS
247
ITEM: BOX BOUNDS pp pp pp
0.0000000000000000e+00 1.3600000000000000e+01
0.0000000000000000e+00 1.3600000000000000e+01
0.0000000000000000e+00 1.3600000000000000e+01
ITEM: ATOMS id type xs ys zs
1 2 0.187031 0.187031 0.187031
35 2 0.0623438 0.311719 0.0623438
41 2 0.0623438 0.0623438 0.311719
47 2 0.311719 0.0623438 0.0623438
54 2 0.311719 0.311719 0.311719
65 1 0 0 0
79 1 0 0.249375 0.249375
83 1 0.124688 0.124688 0
85 1 0.124688 0 0.124688
89 1 0.249375 0 0.249375
93 1 0 0.124688 0.124688
95 1 0.249375 0.249375 0
6 2 0.561094 0.0623438 0.311719
9 2 0.561094 0.311719 0.0623438
73 1 0.374063 0.124688 0.249375
76 1 0.374063 0.249375 0.124688
107 1 0.49875 0 0
135 1 0.49875 0.249375 0.249375
138 1 0.623437 0.124688 0
140 1 0.623437 0 0.124688
161 1 0.49875 0.124688 0.124688
16 2 0.810469 0.0623438 0.0623438
25 2 0.810469 0.311719 0.311719
36 2 0.685781 0.187031 0.187031
69 1 0.9975 0 0
80 1 0.9975 0.249375 0.249375
94 1 0.9975 0.124688 0.124688
113 1 0.872813 0.124688 0.249375
116 1 0.872813 0.249375 0.124688
158 1 0.748125 0 0.249375
168 1 0.748125 0.249375 0
4 2 0.311719 0.561094 0.0623438
13 2 0.0623438 0.561094 0.311719
74 1 0.124688 0.374063 0.249375
77 1 0.249375 0.374063 0.124688
117 1 0 0.49875 0
146 1 0.124688 0.49875 0.124688
150 1 0.124688 0.623437 0
162 1 0.249375 0.49875 0.249375
165 1 0 0.623437 0.124688
28 2 0.436406 0.436406 0.187031
44 2 0.561094 0.561094 0.311719
81 1 0.374063 0.374063 0
114 1 0.623437 0.374063 0.249375
125 1 0.374063 0.623437 0.249375
188 1 0.49875 0.49875 0
210 1 0.623437 0.49875 0.124688
214 1 0.623437 0.623437 0
227 1 0.49875 0.623437 0.124688
5 2 0.935156 0.436406 0.187031
40 2 0.810469 0.561094 0.0623438
111 1 0.748125 0.374063 0.124688
119 1 0.9975 0.49875 0
136 1 0.872813 0.374063 0
166 1 0.9975 0.623437 0.124688
194 1 0.872813 0.623437 0.249375
225 1 0.748125 0.49875 0.249375
22 2 0.311719 0.810469 0.311719
24 2 0.0623438 0.810469 0.0623438
42 2 0.187031 0.685781 0.187031
67 1 0 0.9975 0
86 1 0.124688 0.9975 0.124688
90 1 0.249375 0.9975 0.249375
123 1 0.249375 0.872813 0.124688
126 1 0.124688 0.872813 0.249375
144 1 0 0.748125 0.249375
170 1 0.249375 0.748125 0
14 2 0.436406 0.935156 0.187031
50 2 0.561094 0.810469 0.0623438
109 1 0.49875 0.9975 0
122 1 0.374063 0.748125 0.124688
141 1 0.623437 0.9975 0.124688
148 1 0.374063 0.872813 0
195 1 0.623437 0.872813 0.249375
209 1 0.49875 0.748125 0.249375
21 2 0.935156 0.935156 0.187031
31 2 0.810469 0.810469 0.311719
63 2 0.685781 0.685781 0.187031
71 1 0.9975 0.9975 0
145 1 0.9975 0.748125 0.249375
159 1 0.748125 0.9975 0.249375
191 1 0.872813 0.748125 0.124688
192 1 0.748125 0.872813 0.124688
212 1 0.872813 0.872813 0
230 1 0.748125 0.748125 0
8 2 0.0623438 0.311719 0.561094
11 2 0.311719 0.0623438 0.561094
75 1 0.124688 0.249375 0.374063
78 1 0.249375 0.124688 0.374063
97 1 0 0 0.49875
130 1 0.124688 0.124688 0.49875
131 1 0.124688 0 0.623437
156 1 0 0.124688 0.623437
167 1 0.249375 0.249375 0.49875
23 2 0.436406 0.187031 0.436406
38 2 0.561094 0.311719 0.561094
87 1 0.374063 0 0.374063
104 1 0.374063 0.249375 0.623437
115 1 0.623437 0.249375 0.374063
180 1 0.49875 0 0.49875
204 1 0.623437 0.124688 0.49875
205 1 0.623437 0 0.623437
224 1 0.49875 0.124688 0.623437
10 2 0.935156 0.187031 0.436406
52 2 0.810469 0.0623438 0.561094
99 1 0.9975 0 0.49875
112 1 0.748125 0.124688 0.374063
142 1 0.872813 0 0.374063
157 1 0.9975 0.124688 0.623437
187 1 0.872813 0.249375 0.623437
229 1 0.748125 0.249375 0.49875
15 2 0.187031 0.436406 0.436406
32 2 0.311719 0.561094 0.561094
91 1 0 0.374063 0.374063
105 1 0.249375 0.374063 0.623437
124 1 0.249375 0.623437 0.374063
172 1 0 0.49875 0.49875
199 1 0.124688 0.623437 0.49875
200 1 0.124688 0.49875 0.623437
219 1 0 0.623437 0.623437
129 1 0.374063 0.374063 0.49875
147 1 0.374063 0.49875 0.374063
160 1 0.49875 0.374063 0.374063
232 1 0.49875 0.49875 0.49875
241 1 0.623437 0.623437 0.49875
242 1 0.623437 0.49875 0.623437
246 1 0.49875 0.623437 0.623437
26 2 0.810469 0.561094 0.561094
55 2 0.685781 0.436406 0.436406
92 1 0.9975 0.374063 0.374063
173 1 0.9975 0.49875 0.49875
182 1 0.748125 0.374063 0.623437
193 1 0.748125 0.623437 0.374063
203 1 0.872813 0.374063 0.49875
211 1 0.872813 0.49875 0.374063
220 1 0.9975 0.623437 0.623437
3 2 0.187031 0.935156 0.436406
46 2 0.0623438 0.810469 0.561094
98 1 0 0.9975 0.49875
121 1 0.124688 0.748125 0.374063
132 1 0.124688 0.9975 0.623437
163 1 0 0.872813 0.374063
178 1 0.249375 0.872813 0.623437
228 1 0.249375 0.748125 0.49875
19 2 0.561094 0.810469 0.561094
58 2 0.436406 0.685781 0.436406
88 1 0.374063 0.9975 0.374063
177 1 0.374063 0.748125 0.623437
181 1 0.49875 0.9975 0.49875
190 1 0.623437 0.748125 0.374063
198 1 0.374063 0.872813 0.49875
206 1 0.623437 0.9975 0.623437
226 1 0.49875 0.872813 0.374063
39 2 0.685781 0.935156 0.436406
51 2 0.935156 0.685781 0.436406
100 1 0.9975 0.9975 0.49875
143 1 0.872813 0.9975 0.374063
164 1 0.9975 0.872813 0.374063
236 1 0.872813 0.748125 0.623437
237 1 0.748125 0.872813 0.623437
240 1 0.872813 0.872813 0.49875
247 1 0.748125 0.748125 0.49875
17 2 0.311719 0.311719 0.810469
29 2 0.0623438 0.0623438 0.810469
30 2 0.187031 0.187031 0.685781
66 1 0 0 0.9975
84 1 0.124688 0.124688 0.9975
96 1 0.249375 0.249375 0.9975
103 1 0.124688 0.249375 0.872813
106 1 0.249375 0.124688 0.872813
127 1 0 0.249375 0.748125
152 1 0.249375 0 0.748125
7 2 0.436406 0.187031 0.935156
34 2 0.561094 0.0623438 0.810469
101 1 0.374063 0.124688 0.748125
108 1 0.49875 0 0.9975
133 1 0.374063 0 0.872813
139 1 0.623437 0.124688 0.9975
186 1 0.623437 0.249375 0.872813
202 1 0.49875 0.249375 0.748125
18 2 0.935156 0.187031 0.935156
43 2 0.810469 0.311719 0.810469
62 2 0.685781 0.187031 0.685781
70 1 0.9975 0 0.9975
128 1 0.9975 0.249375 0.748125
169 1 0.748125 0.249375 0.9975
183 1 0.748125 0.124688 0.872813
184 1 0.872813 0.124688 0.748125
207 1 0.872813 0 0.872813
221 1 0.748125 0 0.748125
12 2 0.187031 0.436406 0.935156
48 2 0.0623438 0.561094 0.810469
102 1 0.124688 0.374063 0.748125
118 1 0 0.49875 0.9975
151 1 0.124688 0.623437 0.9975
154 1 0 0.374063 0.872813
179 1 0.249375 0.623437 0.872813
216 1 0.249375 0.49875 0.748125
20 2 0.561094 0.561094 0.810469
60 2 0.436406 0.436406 0.685781
82 1 0.374063 0.374063 0.9975
174 1 0.374063 0.623437 0.748125
185 1 0.623437 0.374063 0.748125
189 1 0.49875 0.49875 0.9975
201 1 0.374063 0.49875 0.872813
215 1 0.623437 0.623437 0.9975
223 1 0.49875 0.374063 0.872813
33 2 0.935156 0.436406 0.685781
53 2 0.685781 0.436406 0.935156
120 1 0.9975 0.49875 0.9975
137 1 0.872813 0.374063 0.9975
155 1 0.9975 0.374063 0.872813
233 1 0.872813 0.623437 0.748125
238 1 0.748125 0.623437 0.872813
243 1 0.872813 0.49875 0.872813
244 1 0.748125 0.49875 0.748125
27 2 0.187031 0.935156 0.935156
37 2 0.311719 0.810469 0.810469
61 2 0.187031 0.685781 0.685781
68 1 0 0.9975 0.9975
153 1 0.249375 0.9975 0.748125
171 1 0.249375 0.748125 0.9975
175 1 0.124688 0.872813 0.748125
176 1 0.124688 0.748125 0.872813
196 1 0 0.748125 0.748125
217 1 0 0.872813 0.872813
45 2 0.436406 0.685781 0.935156
49 2 0.436406 0.935156 0.685781
110 1 0.49875 0.9975 0.9975
134 1 0.374063 0.9975 0.872813
149 1 0.374063 0.872813 0.9975
234 1 0.623437 0.872813 0.748125
235 1 0.623437 0.748125 0.872813
239 1 0.49875 0.748125 0.748125
245 1 0.49875 0.872813 0.872813
2 2 0.810469 0.810469 0.810469
56 2 0.935156 0.685781 0.935156
57 2 0.935156 0.935156 0.685781
59 2 0.685781 0.935156 0.935156
64 2 0.685781 0.685781 0.685781
72 1 0.9975 0.9975 0.9975
197 1 0.9975 0.748125 0.748125
208 1 0.872813 0.9975 0.872813
213 1 0.872813 0.872813 0.9975
218 1 0.9975 0.872813 0.872813
222 1 0.748125 0.9975 0.748125
231 1 0.748125 0.748125 0.9975
ITEM: TIMESTEP
100
ITEM: NUMBER OF ATOMS
247
ITEM: BOX BOUNDS pp pp pp
0.0000000000000000e+00 1.3600000000000000e+01
0.0000000000000000e+00 1.3600000000000000e+01
0.0000000000000000e+00 1.3600000000000000e+01
ITEM: ATOMS id type xs ys zs
1 2 0.20171 0.204752 0.227323
35 2 0.0452765 0.296197 0.0852776
41 2 0.0590297 0.0630151 0.311069
47 2 0.289596 0.0580395 0.0740475
54 2 0.33883 0.3347 0.315934
65 1 0.0967694 0.118319 0.102038
79 1 0.0667033 0.325692 0.323879
83 1 0.107903 0.113642 0.112515
85 1 0.10916 0.0993292 0.108519
89 1 0.316352 0.0640135 0.320071
93 1 0.100973 0.099281 0.13208
95 1 0.271814 0.270026 0.0678401
6 2 0.546361 0.0785377 0.320472
9 2 0.559903 0.311509 0.0672695
73 1 0.388617 0.151015 0.242746
76 1 0.368663 0.254736 0.134623
107 1 0.541776 0.113328 0.110074
135 1 0.514992 0.269162 0.264792
138 1 0.57266 0.114654 0.115508
140 1 0.555911 0.0981032 0.130378
161 1 0.502633 0.130878 0.141893
16 2 0.762989 0.0611321 0.0628736
25 2 0.802115 0.334359 0.308124
36 2 0.696727 0.199224 0.208996
69 1 0.936623 0.0957953 0.162536
80 1 0.945932 0.221139 0.229354
94 1 0.939876 0.139419 0.125822
113 1 0.872041 0.100592 0.232045
116 1 0.846358 0.259732 0.0926558
158 1 0.793535 0.0466446 0.296499
168 1 0.751722 0.297794 0.0554947
4 2 0.30239 0.56033 0.058427
13 2 0.0877683 0.547121 0.321724
74 1 0.150288 0.388782 0.246689
77 1 0.249387 0.371974 0.135196
117 1 0.0975781 0.533664 0.127742
146 1 0.120673 0.505744 0.137654
150 1 0.110322 0.561171 0.132835
162 1 0.268711 0.510637 0.26137
165 1 0.0989146 0.565792 0.129176
28 2 0.442718 0.447419 0.17897
44 2 0.572592 0.57011 0.305133
81 1 0.322004 0.32479 0.0750987
114 1 0.625081 0.388934 0.248093
125 1 0.386396 0.620603 0.250055
188 1 0.524676 0.522717 0.0213508
210 1 0.630968 0.4963 0.126074
214 1 0.579677 0.582192 0.116453
227 1 0.479487 0.64001 0.134087
5 2 0.950002 0.444926 0.213322
40 2 0.79165 0.575414 0.0471339
111 1 0.732982 0.376999 0.119841
119 1 0.900009 0.421069 0.0474833
136 1 0.885391 0.411965 0.0540705
166 1 0.946995 0.632885 0.135871
194 1 0.841313 0.595378 0.269331
225 1 0.774707 0.525296 0.263549
22 2 0.343181 0.8 0.306771
24 2 0.0540457 0.771422 0.0807815
42 2 0.204981 0.696107 0.203924
67 1 0.0384634 0.95513 0.0878831
86 1 0.141778 0.941285 0.103615
90 1 0.223324 0.938494 0.215028
123 1 0.268747 0.854137 0.0922042
126 1 0.10888 0.87553 0.243547
144 1 0.0582568 0.800219 0.297677
170 1 0.27155 0.759207 0.0259605
14 2 0.438091 0.953894 0.202425
50 2 0.570882 0.797306 0.0566022
109 1 0.398628 0.894044 0.0432909
122 1 0.382111 0.741646 0.119576
141 1 0.634474 0.954538 0.15676
148 1 0.407315 0.875201 0.0477317
195 1 0.595196 0.847352 0.267793
209 1 0.527758 0.77658 0.262468
21 2 0.916623 0.916244 0.218599
31 2 0.793185 0.79588 0.360319
63 2 0.706924 0.707398 0.191595
71 1 0.86674 0.895944 0.0404446
145 1 0.920396 0.719754 0.219821
159 1 0.726133 0.911922 0.203634
191 1 0.865812 0.768753 0.0959601
192 1 0.770558 0.867432 0.0977465
212 1 0.889333 0.866062 0.0418744
230 1 0.802254 0.797218 0.0476966
8 2 0.0369208 0.317188 0.548037
11 2 0.314649 0.0370356 0.546355
75 1 0.12825 0.237008 0.40252
78 1 0.23833 0.129304 0.400194
97 1 0.131485 0.0913874 0.487779
130 1 0.0902348 0.135176 0.487366
131 1 0.107951 0.088556 0.612189
156 1 0.0982689 0.0918544 0.613497
167 1 0.250634 0.247078 0.458912
23 2 0.430522 0.191596 0.443434
38 2 0.565581 0.320621 0.55101
87 1 0.337219 0.0478393 0.350218
104 1 0.411633 0.23961 0.635102
115 1 0.64759 0.236041 0.396633
180 1 0.543111 0.0386582 0.549629
204 1 0.637955 0.150738 0.478918
205 1 0.572356 0.02455 0.563159
224 1 0.45277 0.168148 0.639175
10 2 0.910679 0.189428 0.415087
52 2 0.781049 0.0596565 0.565529
99 1 0.953775 0.0567687 0.54098
112 1 0.717411 0.149074 0.398329
142 1 0.821173 0.05387 0.318967
157 1 0.937648 0.156957 0.615157
187 1 0.851708 0.260353 0.590979
229 1 0.750723 0.2579 0.517477
15 2 0.195039 0.42479 0.444952
32 2 0.322479 0.559864 0.554006
91 1 0.0454024 0.336173 0.351619
105 1 0.214873 0.414876 0.642514
124 1 0.236874 0.651428 0.397409
172 1 0.0363497 0.537061 0.546379
199 1 0.16003 0.625144 0.482002
200 1 0.165325 0.462519 0.63893
219 1 0.0254932 0.571613 0.575132
129 1 0.360623 0.355646 0.524966
147 1 0.387719 0.513438 0.370591
160 1 0.513835 0.391877 0.373989
232 1 0.514581 0.510896 0.501033
241 1 0.616019 0.612641 0.494707
242 1 0.640001 0.4778 0.62799
246 1 0.475114 0.646804 0.632504
26 2 0.833212 0.572334 0.567109
55 2 0.701017 0.443203 0.440581
92 1 0.923578 0.430164 0.424519
173 1 0.922939 0.471306 0.433895
182 1 0.723677 0.421112 0.625795
193 1 0.739872 0.624674 0.398864
203 1 0.84458 0.338724 0.539777
211 1 0.860807 0.526401 0.363386
220 1 0.963564 0.675952 0.698024
3 2 0.200091 0.914625 0.407294
46 2 0.070267 0.772693 0.547677
98 1 0.0605173 0.945427 0.528759
121 1 0.154168 0.718308 0.390012
132 1 0.157053 0.930067 0.601652
163 1 0.0624073 0.827201 0.322799
178 1 0.247762 0.854706 0.588389
228 1 0.269578 0.755288 0.522408
19 2 0.575445 0.828303 0.5604
58 2 0.445538 0.692586 0.438201
88 1 0.437892 0.932465 0.42042
177 1 0.427029 0.718944 0.616998
181 1 0.467416 0.93238 0.441233
190 1 0.611432 0.76033 0.375391
198 1 0.346404 0.84193 0.53873
206 1 0.664582 0.956335 0.690845
226 1 0.52638 0.861093 0.357188
39 2 0.678074 0.952857 0.408654
51 2 0.949821 0.675096 0.407253
100 1 0.873128 0.903404 0.505463
143 1 0.905654 0.942095 0.414205
164 1 0.946235 0.899407 0.410408
236 1 0.870924 0.772903 0.575595
237 1 0.773857 0.866641 0.57003
240 1 0.889874 0.862111 0.519668
247 1 0.759913 0.755846 0.54341
17 2 0.32363 0.317727 0.794961
29 2 0.136655 0.0871049 0.789172
30 2 0.223388 0.224347 0.636068
66 1 0.958357 0.0389152 0.82104
84 1 0.152232 0.195692 0.953767
96 1 0.214753 0.209119 0.918495
103 1 0.135322 0.28548 0.810507
106 1 0.302951 0.070494 0.877862
127 1 0.0797916 0.298186 0.752738
152 1 0.325828 0.0913595 0.792666
7 2 0.415399 0.207 0.952913
34 2 0.539254 0.0695822 0.833573
101 1 0.40482 0.141897 0.707424
108 1 0.379671 0.0287644 0.923193
133 1 0.360177 0.0496625 0.858125
139 1 0.631388 0.167319 0.965387
186 1 0.579834 0.278448 0.844216
202 1 0.519299 0.276364 0.779397
18 2 0.964505 0.209438 0.878026
43 2 0.777536 0.29398 0.758019
62 2 0.636696 0.165327 0.678175
70 1 0.919964 0.0528754 0.982531
128 1 0.940761 0.21975 0.689332
169 1 0.780002 0.198077 0.926806
183 1 0.737698 0.113611 0.84991
184 1 0.848007 0.122475 0.731955
207 1 0.800865 0.0657921 0.876809
221 1 0.787641 0.049999 0.759522
12 2 0.199377 0.405826 0.950647
48 2 0.0718781 0.54381 0.825411
102 1 0.124101 0.368743 0.729745
118 1 0.0227086 0.386352 0.91753
151 1 0.144481 0.634994 0.978879
154 1 0.0494504 0.365972 0.840417
179 1 0.273757 0.584735 0.857848
216 1 0.272422 0.512944 0.772885
20 2 0.558186 0.55656 0.815117
60 2 0.442841 0.440303 0.685079
82 1 0.404619 0.409097 0.958306
174 1 0.3784 0.611626 0.746874
185 1 0.609881 0.371707 0.75097
189 1 0.436398 0.438591 0.90962
201 1 0.341308 0.521867 0.843995
215 1 0.633915 0.641271 0.966493
223 1 0.519464 0.361301 0.866381
33 2 0.937263 0.43029 0.698696
53 2 0.688227 0.427142 0.928084
120 1 -0.00413691 0.549327 0.995406
137 1 0.850766 0.341629 0.920548
155 1 0.866606 0.398471 0.88162
233 1 0.84652 0.602268 0.760457
238 1 0.76045 0.601573 0.84299
243 1 0.873048 0.501973 0.88107
244 1 0.761981 0.511227 0.757146
27 2 0.21463 0.904212 0.907595
37 2 0.314909 0.784125 0.742308
61 2 0.169392 0.650134 0.686524
68 1 0.0376914 0.858201 0.92109
153 1 0.233706 0.949887 0.700562
171 1 0.216086 0.692598 0.88096
175 1 0.135011 0.860746 0.72833
176 1 0.112685 0.74154 0.868057
196 1 0.0594808 0.79712 0.786112
217 1 0.0372736 0.876907 0.858548
45 2 0.426718 0.685103 0.928325
49 2 0.444696 0.948742 0.693119
110 1 0.549799 0.984121 1.00599
134 1 0.406129 0.878699 0.869839
149 1 0.388575 0.866195 0.888053
234 1 0.598641 0.834394 0.757583
235 1 0.601366 0.753596 0.843531
239 1 0.515607 0.763095 0.753297
245 1 0.49851 0.877761 0.885193
2 2 0.790752 0.79101 0.739507
56 2 0.924741 0.703422 0.903256
57 2 0.95973 0.924464 0.683974
59 2 0.690302 0.91478 0.898871
64 2 0.657579 0.654629 0.669013
72 1 0.0793732 0.0333833 0.951407
197 1 0.96606 0.677752 0.713466
208 1 0.875581 0.884173 0.873704
213 1 0.878561 0.91216 0.882728
218 1 0.871193 0.90117 0.862551
222 1 0.64969 0.941617 0.713736
231 1 0.730521 0.725562 0.917628
ITEM: TIMESTEP
200
ITEM: NUMBER OF ATOMS
247
ITEM: BOX BOUNDS pp pp pp
0.0000000000000000e+00 1.3600000000000000e+01
0.0000000000000000e+00 1.3600000000000000e+01
0.0000000000000000e+00 1.3600000000000000e+01
ITEM: ATOMS id type xs ys zs
1 2 0.201382 0.203714 0.228509
35 2 0.0449801 0.294657 0.0868335
41 2 0.0595706 0.0638645 0.30906
47 2 0.285895 0.0583424 0.0734579
54 2 0.340439 0.337084 0.314117
65 1 0.097162 0.114696 0.104333
79 1 0.0678119 0.332281 0.326044
83 1 0.104703 0.110918 0.114092
85 1 0.106838 0.102999 0.107984
89 1 0.320322 0.0622419 0.319645
93 1 0.100605 0.102891 0.124738
95 1 0.275562 0.272724 0.0712133
6 2 0.540152 0.085473 0.321704
9 2 0.55959 0.310247 0.0674601
73 1 0.387287 0.153758 0.240655
76 1 0.367928 0.255017 0.135323
107 1 0.541236 0.116899 0.111761
135 1 0.518785 0.274495 0.268014
138 1 0.570972 0.113714 0.114333
140 1 0.559423 0.100113 0.132818
161 1 0.508804 0.129318 0.139931
16 2 0.764421 0.0597362 0.0627776
25 2 0.803817 0.338035 0.303479
36 2 0.698443 0.197578 0.210464
69 1 0.937274 0.0956392 0.165507
80 1 0.948294 0.223794 0.233601
94 1 0.939553 0.138412 0.133176
113 1 0.875019 0.101261 0.230924
116 1 0.847138 0.255869 0.0913639
158 1 0.797863 0.0468816 0.297783
168 1 0.752231 0.298095 0.0564015
4 2 0.302464 0.560252 0.0559467
13 2 0.0948549 0.543184 0.31934
74 1 0.155463 0.386437 0.244542
77 1 0.247887 0.371474 0.13475
117 1 0.101051 0.54331 0.131071
146 1 0.11771 0.509561 0.135712
150 1 0.108823 0.559986 0.133716
162 1 0.275171 0.515075 0.26404
165 1 0.100365 0.567427 0.133856
28 2 0.444117 0.44896 0.177311
44 2 0.573708 0.570674 0.305423
81 1 0.322303 0.324337 0.0761861
114 1 0.624821 0.38919 0.247957
125 1 0.386281 0.620629 0.250356
188 1 0.525788 0.524014 0.0200925
210 1 0.631402 0.496778 0.125944
214 1 0.582799 0.583755 0.11629
227 1 0.477054 0.641158 0.133844
5 2 0.949542 0.450301 0.210206
40 2 0.790873 0.575016 0.048154
111 1 0.73303 0.375811 0.11883
119 1 0.891035 0.416276 0.0485721
136 1 0.88942 0.410368 0.0503489
166 1 0.945092 0.636689 0.136979
194 1 0.837956 0.594858 0.269887
225 1 0.779138 0.529223 0.267056
22 2 0.346894 0.801997 0.304639
24 2 0.0527695 0.773348 0.0791158
42 2 0.20611 0.700553 0.203064
67 1 0.0350864 0.957406 0.0857917
86 1 0.138651 0.942699 0.105717
90 1 0.22704 0.938136 0.216696
123 1 0.269865 0.8555 0.0918449
126 1 0.107347 0.877262 0.241681
144 1 0.0615658 0.799889 0.299512
170 1 0.27087 0.75829 0.0265835
14 2 0.442436 0.952996 0.195943
50 2 0.569027 0.796243 0.0612847
109 1 0.392045 0.883563 0.0399645
122 1 0.381435 0.741649 0.118077
141 1 0.636062 0.955497 0.15962
148 1 0.397684 0.87613 0.0418701
195 1 0.595961 0.843703 0.267324
209 1 0.531985 0.781551 0.266482
21 2 0.914927 0.917076 0.217032
31 2 0.796348 0.797515 0.369266
63 2 0.710419 0.709784 0.195066
71 1 0.863184 0.887182 0.0390368
145 1 0.918358 0.721516 0.219312
159 1 0.725928 0.912004 0.205442
191 1 0.863569 0.770977 0.0933051
192 1 0.771629 0.865381 0.0944488
212 1 0.887033 0.866958 0.038119
230 1 0.800272 0.795579 0.0471219
8 2 0.03312 0.317484 0.547476
11 2 0.317334 0.0328332 0.545196
75 1 0.127325 0.235998 0.404849
78 1 0.238023 0.129768 0.402821
97 1 0.13168 0.0903161 0.487836
130 1 0.0871855 0.13825 0.486683
131 1 0.103811 0.0868424 0.612164
156 1 0.101471 0.0870419 0.614761
167 1 0.247926 0.24365 0.450429
23 2 0.426356 0.193856 0.446344
38 2 0.567285 0.321612 0.548672
87 1 0.339391 0.0461644 0.347186
104 1 0.414783 0.23898 0.6372
115 1 0.653793 0.234429 0.397979
180 1 0.545535 0.0366614 0.549213
204 1 0.638157 0.151687 0.479044
205 1 0.570707 0.0248087 0.560005
224 1 0.446846 0.172275 0.6397
10 2 0.905094 0.187012 0.415118
52 2 0.778579 0.0580293 0.566247
99 1 0.954518 0.0561886 0.541923
112 1 0.712551 0.152632 0.400511
142 1 0.818284 0.0520701 0.313359
157 1 0.938021 0.153425 0.613457
187 1 0.848571 0.265398 0.58918
229 1 0.751327 0.259568 0.522746
15 2 0.195181 0.420812 0.447651
32 2 0.323242 0.560066 0.552856
91 1 0.0423821 0.33602 0.35041
105 1 0.208548 0.417539 0.64427
124 1 0.237334 0.655693 0.396689
172 1 0.0347452 0.539723 0.548713
199 1 0.160552 0.625006 0.481786
200 1 0.16956 0.460074 0.639968
219 1 0.0251245 0.569807 0.572894
129 1 0.360138 0.356022 0.526615
147 1 0.389304 0.514911 0.370122
160 1 0.515499 0.393676 0.373063
232 1 0.51684 0.512772 0.502632
241 1 0.616904 0.613106 0.493331
242 1 0.643876 0.47461 0.632962
246 1 0.470931 0.653479 0.637951
26 2 0.834752 0.575139 0.567796
55 2 0.704301 0.442603 0.44198
92 1 0.923398 0.430839 0.42874
173 1 0.921889 0.473323 0.42698
182 1 0.719386 0.427625 0.629701
193 1 0.739254 0.626116 0.402058
203 1 0.842507 0.333647 0.541709
211 1 0.851695 0.530615 0.354764
220 1 0.965289 0.672649 0.699645
3 2 0.198788 0.911619 0.406031
46 2 0.0693336 0.770943 0.547414
98 1 0.0608786 0.94446 0.527524
121 1 0.158907 0.714164 0.392793
132 1 0.15931 0.927891 0.600979
163 1 0.0539121 0.825674 0.315473
178 1 0.245696 0.85389 0.588383
228 1 0.270463 0.757277 0.527161
19 2 0.577477 0.828883 0.560529
58 2 0.445064 0.694261 0.439417
88 1 0.441501 0.932215 0.419813
177 1 0.436567 0.710041 0.620852
181 1 0.469109 0.931663 0.43777
190 1 0.612071 0.762053 0.374177
198 1 0.345022 0.840793 0.540872
206 1 0.659769 0.958389 0.697879
226 1 0.529148 0.854105 0.350113
39 2 0.67217 0.956183 0.401424
51 2 0.954136 0.669018 0.402501
100 1 0.871835 0.903986 0.510245
143 1 0.907069 0.946188 0.411839
164 1 0.948231 0.905642 0.406625
236 1 0.869174 0.774445 0.568893
237 1 0.775609 0.862046 0.556523
240 1 0.894996 0.858863 0.522421
247 1 0.758773 0.754021 0.551004
17 2 0.322713 0.315868 0.793236
29 2 0.140304 0.088859 0.789445
30 2 0.222305 0.224614 0.629356
66 1 0.960069 0.0380647 0.823882
84 1 0.154526 0.19544 0.956698
96 1 0.215744 0.206925 0.924891
103 1 0.134918 0.285421 0.807175
106 1 0.308723 0.0653809 0.875083
127 1 0.0799358 0.297821 0.751346
152 1 0.329404 0.0945062 0.792966
7 2 0.414441 0.207438 0.954408
34 2 0.538059 0.0714112 0.838062
101 1 0.40681 0.143222 0.702823
108 1 0.375961 0.0298712 0.923071
133 1 0.359565 0.0488522 0.861957
139 1 0.636023 0.168323 0.965009
186 1 0.57867 0.278961 0.844646
202 1 0.521169 0.278453 0.786341
18 2 0.966272 0.208787 0.878303
43 2 0.775442 0.291655 0.757172
62 2 0.630558 0.164176 0.678225
70 1 0.922474 0.0535896 0.984872
128 1 0.94056 0.219426 0.690263
169 1 0.783379 0.198075 0.928143
183 1 0.734919 0.111493 0.849933
184 1 0.847556 0.119811 0.732998
207 1 0.802884 0.0657891 0.876797
221 1 0.786712 0.0487464 0.759196
12 2 0.199797 0.403264 0.950179
48 2 0.0719166 0.542683 0.828228
102 1 0.122925 0.366862 0.729822
118 1 0.0217827 0.38629 0.921129
151 1 0.142817 0.635634 0.979589
154 1 0.0483919 0.365465 0.840926
179 1 0.273979 0.581982 0.857272
216 1 0.273437 0.514064 0.776171
20 2 0.555615 0.555064 0.818075
60 2 0.442953 0.43964 0.685293
82 1 0.40409 0.408808 0.958099
174 1 0.37821 0.610471 0.746508
185 1 0.608996 0.371409 0.750708
189 1 0.433524 0.437016 0.91315
201 1 0.339158 0.521398 0.842906
215 1 0.634714 0.643977 0.964599
223 1 0.518939 0.360703 0.867398
33 2 0.936535 0.430859 0.699274
53 2 0.688607 0.426164 0.927657
120 1 -0.00632448 0.546329 0.999829
137 1 0.851688 0.34091 0.918642
155 1 0.866215 0.395587 0.880926
233 1 0.844542 0.60165 0.761534
238 1 0.760093 0.600679 0.841824
243 1 0.872676 0.501261 0.881762
244 1 0.761545 0.510605 0.757108
27 2 0.216269 0.900661 0.907208
37 2 0.317456 0.783141 0.739701
61 2 0.168791 0.648297 0.687013
68 1 0.036184 0.858911 0.920188
153 1 0.236979 0.951822 0.703016
171 1 0.215064 0.692492 0.880819
175 1 0.135431 0.857315 0.729065
176 1 0.11191 0.739515 0.869805
196 1 0.0593924 0.796401 0.786482
217 1 0.0371219 0.8777 0.85789
45 2 0.425575 0.688847 0.927421
49 2 0.447019 0.949601 0.697544
110 1 0.545545 0.981457 1.00913
134 1 0.404333 0.876876 0.874188
149 1 0.397992 0.875288 0.879431
234 1 0.597664 0.82842 0.757838
235 1 0.600749 0.752007 0.842219
239 1 0.516265 0.763952 0.753351
245 1 0.492608 0.876083 0.885121
2 2 0.792815 0.790007 0.735276
56 2 0.922994 0.704422 0.903609
57 2 0.96224 0.927114 0.683837
59 2 0.688607 0.911287 0.898419
64 2 0.653831 0.651094 0.669458
72 1 0.0822811 0.0351036 0.950518
197 1 0.967236 0.675377 0.715211
208 1 0.873724 0.896259 0.868018
213 1 0.875181 0.908445 0.87629
218 1 0.873167 0.903227 0.862447
222 1 0.64876 0.939919 0.70905
231 1 0.729673 0.723016 0.915468
ITEM: TIMESTEP
300
ITEM: NUMBER OF ATOMS
247
ITEM: BOX BOUNDS pp pp pp
0.0000000000000000e+00 1.3600000000000000e+01
0.0000000000000000e+00 1.3600000000000000e+01
0.0000000000000000e+00 1.3600000000000000e+01
ITEM: ATOMS id type xs ys zs
1 2 0.201363 0.203557 0.22867
35 2 0.0448837 0.294473 0.0870182
41 2 0.0596359 0.0639656 0.308833
47 2 0.28546 0.058349 0.0733672
54 2 0.340657 0.337424 0.313876
65 1 0.0971463 0.114246 0.104474
79 1 0.0675216 0.332162 0.3257
83 1 0.104304 0.110586 0.114351
85 1 0.106514 0.103353 0.108009
89 1 0.320878 0.0620209 0.319653
93 1 0.100555 0.103545 0.123874
95 1 0.276074 0.27311 0.0716648
6 2 0.539309 0.0864558 0.321838
9 2 0.559658 0.310146 0.0675311
73 1 0.387079 0.154153 0.24034
76 1 0.367841 0.255041 0.135417
107 1 0.54125 0.115796 0.111959
135 1 0.519314 0.275249 0.268467
138 1 0.570955 0.114549 0.114449
140 1 0.559902 0.100459 0.133199
161 1 0.509608 0.129475 0.139307
16 2 0.764609 0.0594965 0.0627449
25 2 0.804064 0.338546 0.302829
36 2 0.698617 0.19737 0.210617
69 1 0.937353 0.0956307 0.165851
80 1 0.948719 0.224185 0.234195
94 1 0.939444 0.138227 0.134164
113 1 0.875416 0.101331 0.230774
116 1 0.84724 0.255398 0.0912032
158 1 0.798551 0.0467494 0.297853
168 1 0.752326 0.298148 0.0565143
4 2 0.302406 0.560291 0.0556421
13 2 0.0958674 0.542629 0.319264
74 1 0.156201 0.386129 0.244237
77 1 0.247667 0.37139 0.134714
117 1 0.101565 0.544376 0.132185
146 1 0.117306 0.510175 0.135659
150 1 0.109168 0.560387 0.133481
162 1 0.27609 0.515719 0.264413
165 1 0.0999444 0.567377 0.133698
28 2 0.444319 0.449183 0.177078
44 2 0.573866 0.570752 0.305461
81 1 0.322346 0.324296 0.0763382
114 1 0.624806 0.389208 0.247937
125 1 0.386263 0.620644 0.250397
188 1 0.525943 0.524202 0.0199114
210 1 0.631468 0.496825 0.125924
214 1 0.58324 0.583972 0.116271
227 1 0.476706 0.641314 0.133811
5 2 0.949634 0.451075 0.209808
40 2 0.79073 0.574984 0.0482874
111 1 0.733057 0.375666 0.118673
119 1 0.890042 0.415771 0.0485594
136 1 0.889738 0.409903 0.0501026
166 1 0.944871 0.637174 0.13713
194 1 0.837506 0.594752 0.269986
225 1 0.77978 0.529765 0.267537
22 2 0.347418 0.802297 0.304347
24 2 0.0525527 0.773572 0.0789689
42 2 0.206145 0.701028 0.202969
67 1 0.0346685 0.957689 0.0855392
86 1 0.138236 0.94285 0.105995
90 1 0.227534 0.938056 0.216903
123 1 0.270019 0.855685 0.0918002
126 1 0.107043 0.877556 0.241435
144 1 0.0623802 0.799484 0.29995
170 1 0.270779 0.758152 0.0266614
14 2 0.442986 0.95296 0.195007
50 2 0.568655 0.796207 0.061881
109 1 0.391592 0.882412 0.0395295
122 1 0.381319 0.741653 0.117864
141 1 0.636284 0.955634 0.15997
148 1 0.396091 0.87588 0.0412267
195 1 0.596035 0.843194 0.267257
209 1 0.532602 0.782266 0.267045
21 2 0.914586 0.917232 0.216786
31 2 0.796839 0.7977 0.370421
63 2 0.710894 0.710104 0.195525
71 1 0.862929 0.886119 0.0381881
145 1 0.918153 0.72182 0.219267
159 1 0.725894 0.912035 0.205694
191 1 0.863265 0.771269 0.0929447
192 1 0.771766 0.865104 0.0940418
212 1 0.886647 0.867001 0.0380785
230 1 0.799995 0.795358 0.047014
8 2 0.0326052 0.317517 0.547389
11 2 0.317707 0.0322399 0.545023
75 1 0.127199 0.235877 0.405174
78 1 0.23798 0.129818 0.403204
97 1 0.131764 0.0901626 0.487835
130 1 0.0867654 0.138702 0.486575
131 1 0.103306 0.086643 0.612238
156 1 0.101828 0.0862997 0.614885
167 1 0.247481 0.243145 0.449138
23 2 0.425751 0.194152 0.446757
38 2 0.567514 0.321753 0.548325
87 1 0.339662 0.0459201 0.346839
104 1 0.415193 0.238903 0.63743
115 1 0.654657 0.234188 0.398172
180 1 0.545822 0.0363528 0.549165
204 1 0.638167 0.151798 0.479059
205 1 0.57053 0.0247786 0.55962
224 1 0.446037 0.172819 0.639792
10 2 0.904295 0.186668 0.415149
52 2 0.778222 0.0577776 0.566342
99 1 0.954576 0.0561367 0.542044
112 1 0.711913 0.153094 0.400801
142 1 0.817778 0.0519952 0.312694
157 1 0.938051 0.152947 0.613213
187 1 0.848177 0.266025 0.588952
229 1 0.751422 0.259789 0.5235
15 2 0.195071 0.420308 0.448108
32 2 0.32336 0.560075 0.552685
91 1 0.0423944 0.336909 0.350693
105 1 0.207721 0.417937 0.644464
124 1 0.237398 0.656298 0.396591
172 1 0.034502 0.540024 0.549
199 1 0.160562 0.624909 0.48176
200 1 0.170091 0.459689 0.640158
219 1 0.025094 0.569577 0.572575
129 1 0.360064 0.356128 0.52682
147 1 0.38953 0.515119 0.370061
160 1 0.515728 0.393923 0.372945
232 1 0.517163 0.513035 0.502852
241 1 0.617024 0.613169 0.493161
242 1 0.644438 0.474172 0.633675
246 1 0.470368 0.654436 0.638714
26 2 0.834931 0.575531 0.567875
55 2 0.704759 0.44255 0.442157
92 1 0.923534 0.430844 0.429201
173 1 0.921687 0.473607 0.426087
182 1 0.718771 0.428472 0.630188
193 1 0.739173 0.626316 0.402487
203 1 0.842206 0.332957 0.541966
211 1 0.850338 0.531248 0.353582
220 1 0.965387 0.672204 0.699861
3 2 0.198562 0.911151 0.405849
46 2 0.0691923 0.770681 0.547397
98 1 0.0609329 0.944325 0.527326
121 1 0.159532 0.713632 0.393142
132 1 0.159646 0.927579 0.600871
163 1 0.0524901 0.825631 0.314302
178 1 0.245377 0.853776 0.588398
228 1 0.270567 0.757538 0.527805
19 2 0.577687 0.828973 0.560529
58 2 0.44502 0.694511 0.439583
88 1 0.441975 0.932029 0.419776
177 1 0.437813 0.708762 0.621354
181 1 0.469357 0.931695 0.437276
190 1 0.612169 0.762295 0.374014
198 1 0.344829 0.840632 0.541144
206 1 0.659196 0.958843 0.698951
226 1 0.529498 0.853185 0.349104
39 2 0.671346 0.95661 0.400441
51 2 0.954723 0.668211 0.401816
100 1 0.871743 0.90409 0.510958
143 1 0.907292 0.946799 0.411453
164 1 0.948469 0.906432 0.406161
236 1 0.868889 0.77459 0.567826
237 1 0.77575 0.861387 0.554805
240 1 0.895736 0.858508 0.522916
247 1 0.758591 0.753828 0.552017
17 2 0.322572 0.315609 0.79298
29 2 0.140784 0.0890938 0.789489
30 2 0.222198 0.224566 0.628368
66 1 0.960282 0.0379308 0.824292
84 1 0.154841 0.195396 0.95708
96 1 0.215866 0.20661 0.92578
103 1 0.134864 0.285387 0.80672
106 1 0.30954 0.0646482 0.874696