ITEM: TIMESTEP
0
ITEM: NUMBER OF ATOMS
247
ITEM: BOX BOUNDS pp pp pp
0.0000000000000000e+00 1.3600000000000000e+01
0.0000000000000000e+00 1.3600000000000000e+01
0.0000000000000000e+00 1.3600000000000000e+01
ITEM: ATOMS id type xs ys zs
1 2 0.201402 0.20342 0.228807
35 2 0.0445053 0.294411 0.087107
41 2 0.0596342 0.0640353 0.308798
47 2 0.285181 0.058304 0.0732868
65 1 0.097053 0.114155 0.104504
79 1 0.0670551 0.331784 0.325407
83 1 0.104035 0.110437 0.114546
85 1 0.10631 0.103693 0.107898
89 1 0.321305 0.0619336 0.31998
93 1 0.100373 0.10387 0.123582
95 1 0.276464 0.273461 0.0720014
81 1 0.322408 0.324322 0.0764817
6 2 0.538734 0.0873318 0.321828
9 2 0.559899 0.310059 0.0675507
73 1 0.386855 0.154533 0.239974
76 1 0.367786 0.255034 0.135501
107 1 0.54125 0.115628 0.1123
135 1 0.519774 0.275966 0.268889
138 1 0.571049 0.115349 0.114286
140 1 0.560184 0.100343 0.133168
161 1 0.510401 0.129074 0.139052
16 2 0.764676 0.0591859 0.0626639
36 2 0.698794 0.197259 0.210775
69 1 0.937328 0.0956663 0.165945
80 1 0.949217 0.224504 0.23465
94 1 0.939249 0.137939 0.134888
113 1 0.875585 0.101378 0.230676
116 1 0.847258 0.255345 0.0911307
158 1 0.798824 0.0468091 0.297928
168 1 0.752505 0.298271 0.0565971
142 1 0.817371 0.0518252 0.312046
4 2 0.302253 0.560295 0.055422
13 2 0.0967772 0.542369 0.319559
74 1 0.156864 0.385924 0.243917
77 1 0.247446 0.371283 0.134745
117 1 0.102195 0.545781 0.132494
146 1 0.116654 0.510485 0.135132
150 1 0.109273 0.560593 0.133605
162 1 0.276917 0.516344 0.264744
165 1 0.100098 0.567511 0.133894
54 2 0.340839 0.337767 0.313725
28 2 0.444445 0.449424 0.176865
44 2 0.574004 0.570822 0.305483
114 1 0.624863 0.389182 0.247909
125 1 0.386236 0.6207 0.250431
188 1 0.526063 0.524416 0.0197382
210 1 0.631543 0.496787 0.12592
214 1 0.583612 0.584149 0.116264
227 1 0.476371 0.641443 0.133771
25 2 0.804331 0.338989 0.302228
5 2 0.949752 0.451254 0.20954
40 2 0.790382 0.575042 0.0484853
111 1 0.733186 0.375676 0.118477
119 1 0.890023 0.414487 0.0488613
136 1 0.889976 0.409937 0.0500077
166 1 0.944712 0.637511 0.1373
194 1 0.837142 0.59461 0.270152
225 1 0.780396 0.530223 0.267874
120 1 0.992989 0.545718 0.000937337
24 2 0.0522911 0.773685 0.0790628
42 2 0.206068 0.701415 0.203089
67 1 0.0344256 0.957816 0.0854351
86 1 0.137935 0.94284 0.106264
90 1 0.22784 0.937901 0.217023
123 1 0.270151 0.855818 0.0918127
126 1 0.106471 0.877874 0.241162
144 1 0.0618279 0.799519 0.299882
170 1 0.270682 0.758003 0.0266806
163 1 0.0531168 0.824775 0.314319
22 2 0.347846 0.802574 0.304008
14 2 0.443296 0.953084 0.194329
50 2 0.568332 0.796112 0.0622687
109 1 0.391046 0.881569 0.0392795
122 1 0.381128 0.741648 0.117692
141 1 0.636541 0.955719 0.16017
148 1 0.395213 0.875554 0.0408308
195 1 0.595971 0.842772 0.26722
209 1 0.533205 0.782947 0.267486
110 1 0.544542 0.980706 0.00991968
21 2 0.914069 0.916995 0.215984
63 2 0.711189 0.710344 0.195738
71 1 0.862976 0.885657 0.0378657
145 1 0.918311 0.722393 0.219334
159 1 0.725847 0.912149 0.205865
191 1 0.863043 0.771437 0.0926907
192 1 0.771806 0.864877 0.0937246
212 1 0.886193 0.867063 0.0375259
230 1 0.799702 0.795204 0.0468411
8 2 0.0322113 0.317419 0.547428
11 2 0.318055 0.0316832 0.544868
75 1 0.127096 0.235823 0.405452
78 1 0.237954 0.129815 0.403612
97 1 0.13197 0.0899987 0.487804
130 1 0.0864179 0.139112 0.486443
131 1 0.102999 0.0865804 0.612446
156 1 0.101934 0.0854783 0.614924
167 1 0.246752 0.24249 0.447445
30 2 0.222227 0.224292 0.627349
23 2 0.42517 0.194332 0.447138
38 2 0.567672 0.321923 0.547966
87 1 0.339739 0.0457072 0.346791
104 1 0.415525 0.238893 0.637433
115 1 0.655382 0.233926 0.398351
180 1 0.546004 0.0358945 0.549197
204 1 0.638123 0.151827 0.479064
205 1 0.570587 0.0244339 0.559511
224 1 0.445344 0.173151 0.639928
10 2 0.903556 0.186396 0.415216
52 2 0.777837 0.0574866 0.566437
99 1 0.954565 0.0561638 0.542124
112 1 0.711476 0.153386 0.401
157 1 0.937951 0.152577 0.612964
187 1 0.847954 0.266421 0.588804
229 1 0.751525 0.259948 0.524218
203 1 0.841892 0.332408 0.542153
15 2 0.194889 0.419884 0.448504
32 2 0.323541 0.560007 0.552523
91 1 0.0425902 0.337833 0.350708
105 1 0.207308 0.418407 0.644556
124 1 0.237456 0.656849 0.396531
172 1 0.0342544 0.54009 0.549131
199 1 0.160546 0.624742 0.481763
200 1 0.170243 0.459159 0.640374
219 1 0.0250994 0.569446 0.572275
129 1 0.360068 0.356311 0.526987
147 1 0.389746 0.51531 0.370016
160 1 0.515915 0.39413 0.372866
232 1 0.517448 0.513253 0.503026
241 1 0.617113 0.613229 0.493095
242 1 0.644996 0.473852 0.634372
246 1 0.470061 0.655253 0.639291
26 2 0.834975 0.575901 0.567928
55 2 0.705056 0.442537 0.442331
92 1 0.923573 0.431413 0.427611
173 1 0.921811 0.473436 0.426917
182 1 0.718194 0.429016 0.630428
193 1 0.739107 0.626471 0.40279
211 1 0.84888 0.531976 0.352627
3 2 0.198159 0.910505 0.405642
46 2 0.0690442 0.770369 0.547452
98 1 0.0609661 0.944247 0.527131
121 1 0.159951 0.713349 0.393356
132 1 0.159993 0.927255 0.600743
178 1 0.244982 0.853692 0.588454
228 1 0.270593 0.757698 0.528295
19 2 0.57768 0.829246 0.560237
58 2 0.445127 0.694826 0.439746
88 1 0.442383 0.931945 0.419757
177 1 0.438628 0.707581 0.621689
181 1 0.46952 0.931591 0.436921
190 1 0.612277 0.762519 0.373919
198 1 0.344632 0.840462 0.541284
226 1 0.529691 0.852534 0.348112
31 2 0.79759 0.797552 0.370854
39 2 0.670633 0.956782 0.399782
51 2 0.95514 0.667737 0.401172
100 1 0.871777 0.903991 0.511565
143 1 0.907645 0.947393 0.410912
164 1 0.948682 0.906919 0.40597
236 1 0.86848 0.774506 0.566511
237 1 0.775464 0.861162 0.554849
240 1 0.896157 0.858444 0.523423
247 1 0.758468 0.754065 0.552452
17 2 0.322408 0.315412 0.792707
29 2 0.141135 0.0892474 0.789527
84 1 0.155095 0.195348 0.957334
96 1 0.215894 0.206348 0.926544
103 1 0.134802 0.285295 0.80636
106 1 0.31025 0.0638249 0.874339
127 1 0.0798266 0.297443 0.750993
152 1 0.330362 0.0952072 0.79309
72 1 0.0830678 0.0353164 0.950495
7 2 0.414201 0.207597 0.95479
34 2 0.537987 0.0718073 0.839269
101 1 0.407217 0.143526 0.701957
108 1 0.375093 0.0300703 0.92285
133 1 0.359524 0.0490068 0.862776
139 1 0.637206 0.168721 0.965117
186 1 0.578299 0.279073 0.844829
202 1 0.52172 0.279039 0.788094
62 2 0.629043 0.164008 0.678236
66 1 0.960414 0.0377962 0.824673
18 2 0.966715 0.208621 0.878336
43 2 0.774943 0.291208 0.756842
70 1 0.922958 0.054032 0.985361
128 1 0.940462 0.21934 0.690461
169 1 0.784069 0.198141 0.928404
183 1 0.734305 0.110918 0.849973
184 1 0.847434 0.119158 0.73321
207 1 0.803303 0.0655322 0.87696
221 1 0.786655 0.0483476 0.759213
12 2 0.19984 0.402703 0.950143
48 2 0.0718436 0.542505 0.828923
102 1 0.122683 0.36645 0.729703
118 1 0.0215387 0.386311 0.921979
151 1 0.142247 0.63573 0.979957
154 1 0.048175 0.3654 0.841096
179 1 0.274089 0.581358 0.857149
216 1 0.273681 0.514278 0.777077
61 2 0.168846 0.648028 0.687138
20 2 0.554921 0.554683 0.818982
60 2 0.443312 0.439772 0.685625
82 1 0.403997 0.408726 0.957982
174 1 0.378151 0.610176 0.746476
185 1 0.608798 0.371308 0.75059
189 1 0.432756 0.436573 0.914197
201 1 0.338698 0.521287 0.842634
215 1 0.635071 0.644834 0.964437
223 1 0.518832 0.360562 0.867622
64 2 0.653049 0.65041 0.669675
33 2 0.936332 0.430989 0.699468
53 2 0.688763 0.425903 0.927563
137 1 0.851722 0.34073 0.918062
155 1 0.866127 0.394818 0.880625
233 1 0.844096 0.60152 0.761763
238 1 0.759991 0.600418 0.841568
243 1 0.87271 0.501111 0.882102
244 1 0.76145 0.510358 0.757054
27 2 0.216486 0.899588 0.907307
37 2 0.318163 0.782992 0.739007
68 1 0.0358705 0.859234 0.919732
153 1 0.237957 0.952368 0.703661
171 1 0.214997 0.692522 0.880772
175 1 0.13559 0.856439 0.729216
176 1 0.111752 0.739056 0.870234
196 1 0.0592754 0.796266 0.786394
217 1 0.0371775 0.877855 0.858052
206 1 0.658259 0.958838 0.699017
45 2 0.425204 0.689709 0.927285
49 2 0.448047 0.949803 0.698418
134 1 0.403913 0.877297 0.874779
149 1 0.399763 0.876842 0.877625
234 1 0.597619 0.82701 0.757746
235 1 0.600562 0.751658 0.841833
239 1 0.516544 0.764266 0.75331
245 1 0.490963 0.876002 0.884741
222 1 0.648992 0.939921 0.708651
220 1 0.965503 0.67182 0.699997
2 2 0.793261 0.790287 0.734588
56 2 0.922556 0.704616 0.90359
57 2 0.962867 0.927909 0.684064
59 2 0.688079 0.910363 0.898161
197 1 0.967617 0.674788 0.715561
208 1 0.873399 0.898498 0.866615
213 1 0.874919 0.908041 0.874858
218 1 0.87293 0.903569 0.862583
231 1 0.729545 0.722428 0.914949
ITEM: TIMESTEP
100
ITEM: NUMBER OF ATOMS
247
ITEM: BOX BOUNDS pp pp pp
0.0000000000000000e+00 1.3600000000000000e+01
0.0000000000000000e+00 1.3600000000000000e+01
0.0000000000000000e+00 1.3600000000000000e+01
ITEM: ATOMS id type xs ys zs
1 2 0.201667 0.202415 0.235993
35 2 0.0355587 0.306957 0.0940238
41 2 0.0617388 0.060266 0.314496
47 2 0.284121 0.0541224 0.0668011
65 1 0.11522 0.131333 0.0848096
79 1 0.0707156 0.329861 0.334476
83 1 0.0913052 0.10118 0.110302
85 1 0.106637 0.09943 0.0992123
89 1 0.333885 0.0560684 0.333614
93 1 0.0851852 0.0971744 0.143602
95 1 0.28357 0.280226 0.0840996
81 1 0.327445 0.332044 0.0868121
6 2 0.530915 0.102291 0.320406
9 2 0.558539 0.310019 0.0686725
73 1 0.384158 0.161643 0.231748
76 1 0.3656 0.251363 0.140456
107 1 0.55255 0.128328 0.115248
135 1 0.542393 0.303727 0.292284
138 1 0.559822 0.143456 0.153972
140 1 0.563004 0.13148 0.154898
161 1 0.525587 0.13888 0.138074
16 2 0.797104 0.0606662 0.0580422
36 2 0.706487 0.19454 0.213624
69 1 0.927769 0.0999587 0.198515
80 1 0.956853 0.226502 0.247417
94 1 0.929371 0.130521 0.184952
113 1 0.879094 0.101565 0.232305
116 1 0.84535 0.24749 0.0884133
158 1 0.800473 0.0487544 0.29369
168 1 0.759736 0.302322 0.0648093
142 1 0.801996 0.0440048 0.302433
4 2 0.299103 0.558502 0.0524254
13 2 0.131372 0.547554 0.326322
74 1 0.170486 0.387146 0.240959
77 1 0.240253 0.371878 0.141092
117 1 0.100566 0.584982 0.137997
146 1 0.110311 0.523003 0.135875
150 1 0.104618 0.568371 0.127271
162 1 0.308109 0.539319 0.284069
165 1 0.0918269 0.578705 0.13621
54 2 0.33902 0.343825 0.310779
28 2 0.448941 0.455858 0.176317
44 2 0.576835 0.572819 0.305082
114 1 0.623338 0.389085 0.250484
125 1 0.385031 0.622248 0.252509
188 1 0.530804 0.533129 0.0159878
210 1 0.638241 0.488046 0.131247
214 1 0.593849 0.590126 0.113462
227 1 0.465381 0.645978 0.132146
25 2 0.80661 0.345551 0.284198
5 2 0.968291 0.469809 0.246958
40 2 0.785802 0.57458 0.0508714
111 1 0.734809 0.378279 0.115551
119 1 0.894357 0.411546 0.0528152
136 1 0.826014 0.379579 0.0525056
166 1 0.936585 0.644834 0.150089
194 1 0.826453 0.589159 0.272698
225 1 0.799361 0.55268 0.274504
120 1 0.97719 0.534624 0.0109733
24 2 0.0478284 0.773838 0.0779678
42 2 0.204838 0.708736 0.205231
67 1 0.0267318 0.950482 0.0827527
86 1 0.130035 0.936883 0.110234
90 1 0.232999 0.938425 0.218028
123 1 0.275015 0.86127 0.0999014
126 1 0.0958609 0.887898 0.241994
144 1 0.0559359 0.803288 0.29422
170 1 0.26156 0.750066 0.0275821
163 1 0.0417244 0.812944 0.31444
22 2 0.353838 0.808312 0.296058
14 2 0.449831 0.96023 0.18532
50 2 0.561294 0.799194 0.065875
109 1 0.321152 0.85983 0.0612939
122 1 0.379 0.733543 0.114335
141 1 0.654191 0.939014 0.18202
148 1 0.367337 0.806857 0.0725371
195 1 0.586133 0.832377 0.273242
209 1 0.548496 0.803244 0.276472
110 1 0.548349 0.976318 0.0100867
21 2 0.90389 0.914851 0.211466
63 2 0.715886 0.716121 0.198139
71 1 0.850291 0.871988 0.0425934
145 1 0.918093 0.727263 0.217938
159 1 0.719924 0.915402 0.20941
191 1 0.858521 0.780488 0.0854013
192 1 0.779968 0.858482 0.0845932
212 1 0.879167 0.853152 0.0394894
230 1 0.7918 0.792343 0.0390623
8 2 0.0256939 0.316403 0.548535
11 2 0.318703 0.0285189 0.549759
75 1 0.12764 0.2341 0.410983
78 1 0.234981 0.131644 0.414156
97 1 0.137449 0.0841325 0.492894
130 1 0.0736783 0.146995 0.488036
131 1 0.0999807 0.0607296 0.605377
156 1 0.124501 0.0752754 0.635211
167 1 0.228861 0.226012 0.415697
30 2 0.220989 0.22357 0.611347
23 2 0.416281 0.194588 0.454583
38 2 0.570276 0.327079 0.541455
87 1 0.340417 0.0413571 0.346871
104 1 0.438298 0.240226 0.64089
115 1 0.667139 0.223076 0.403458
180 1 0.548841 0.0255995 0.553332
204 1 0.634378 0.151521 0.479072
205 1 0.566287 0.0195819 0.555583
224 1 0.431503 0.173271 0.645489
10 2 0.891322 0.181978 0.41197
52 2 0.772772 0.0524327 0.569328
99 1 0.950903 0.0496115 0.534222
112 1 0.700612 0.164459 0.406589
157 1 0.93671 0.141415 0.605902
187 1 0.84039 0.283557 0.574646
229 1 0.76075 0.269612 0.537334
203 1 0.834176 0.31855 0.544601
15 2 0.19396 0.410991 0.456535
32 2 0.326667 0.555161 0.546742
91 1 0.0446737 0.334386 0.362624
105 1 0.198816 0.425749 0.64915
124 1 0.244645 0.672454 0.398462
172 1 0.0274185 0.545276 0.550458
199 1 0.162173 0.623081 0.485074
200 1 0.172165 0.453875 0.643893
219 1 0.0229981 0.560645 0.561249
129 1 0.360842 0.358093 0.534402
147 1 0.398602 0.516671 0.36904
160 1 0.517688 0.402335 0.37233
232 1 0.525791 0.520497 0.508977
241 1 0.631579 0.62648 0.4852
242 1 0.668644 0.457071 0.658618
246 1 0.461089 0.673782 0.649446
26 2 0.833588 0.580635 0.569934
55 2 0.708122 0.440918 0.443264
92 1 0.926419 0.454585 0.434145
173 1 0.92496 0.467094 0.434533
182 1 0.698018 0.449045 0.636512
193 1 0.73776 0.625438 0.40999
211 1 0.815082 0.548084 0.335737
3 2 0.194626 0.907 0.394951
46 2 0.0649672 0.766876 0.548222
98 1 0.0634714 0.939852 0.512646
121 1 0.171334 0.708093 0.398632
132 1 0.171646 0.920882 0.59248
178 1 0.220017 0.879835 0.561883
228 1 0.265282 0.764652 0.462606
19 2 0.576692 0.832176 0.561557
58 2 0.448713 0.698068 0.437898
88 1 0.459776 0.936103 0.413645
177 1 0.477846 0.670008 0.627509
181 1 0.477452 0.935346 0.421978
190 1 0.613998 0.772118 0.369245
198 1 0.343548 0.847705 0.512851
226 1 0.542952 0.833938 0.319549
31 2 0.801325 0.797926 0.372893
39 2 0.662706 0.957993 0.391934
51 2 0.958642 0.655706 0.392274
100 1 0.863024 0.883226 0.528215
143 1 0.91229 0.956715 0.394989
164 1 0.951454 0.920615 0.388171
236 1 0.872077 0.778637 0.545253
237 1 0.772453 0.858514 0.545227
240 1 0.88366 0.86364 0.528164
247 1 0.754304 0.760324 0.532163
17 2 0.320182 0.311969 0.787114
29 2 0.162391 0.0920944 0.793348
84 1 0.167833 0.209967 0.944384
96 1 0.211538 0.196373 0.945219
103 1 0.132757 0.284041 0.793398
106 1 0.333042 0.0544317 0.867343
127 1 0.0780108 0.287835 0.746138
152 1 0.344176 0.106179 0.775465
72 1 0.0892356 0.0309196 0.946735
7 2 0.414933 0.212698 0.961171
34 2 0.531777 0.0721428 0.850464
101 1 0.41579 0.149393 0.686989
108 1 0.313558 0.0720047 0.87874
133 1 0.354255 0.0273255 0.887723
139 1 0.653294 0.185431 0.960793
186 1 0.573562 0.282299 0.849579
202 1 0.532922 0.285796 0.81205
62 2 0.615376 0.158565 0.678043
66 1 0.977518 0.0541165 0.789391
18 2 0.979826 0.208313 0.881076
43 2 0.755093 0.282469 0.726403
70 1 0.963373 0.115789 0.0135117
128 1 0.932287 0.219685 0.693252
169 1 0.797846 0.202157 0.923759
183 1 0.736492 0.0893093 0.856063
184 1 0.842485 0.11814 0.737487
207 1 0.78095 0.0896252 0.873665
221 1 0.793571 0.0315096 0.766071
12 2 0.199251 0.398555 0.949216
48 2 0.0709768 0.540283 0.83998
102 1 0.121862 0.360478 0.728346
118 1 -0.000840674 0.38948 0.928091
151 1 0.130573 0.63674 0.980699
154 1 0.0502198 0.364098 0.837959
179 1 0.27577 0.570402 0.855438
216 1 0.278529 0.519686 0.79404
61 2 0.131478 0.615848 0.690974
20 2 0.550029 0.551805 0.827685
60 2 0.443807 0.437484 0.685719
82 1 0.404484 0.408245 0.960649
174 1 0.383383 0.598999 0.755088
185 1 0.600367 0.371372 0.750941
189 1 0.42278 0.432355 0.931886
201 1 0.339899 0.517463 0.847027
215 1 0.641355 0.660784 0.961077
223 1 0.520822 0.360186 0.87049
64 2 0.636954 0.635124 0.667459
33 2 0.937689 0.433321 0.691808
53 2 0.697762 0.421333 0.923039
137 1 0.836914 0.317284 0.924352
155 1 0.865777 0.379183 0.865926
233 1 0.833806 0.594708 0.763987
238 1 0.754435 0.600652 0.838905
243 1 0.881586 0.515055 0.868564
244 1 0.755896 0.50022 0.749406
27 2 0.228086 0.892724 0.906081
37 2 0.291668 0.738127 0.658375
68 1 0.0492428 0.867663 0.918083
153 1 0.260384 0.945187 0.723884
171 1 0.226895 0.70211 0.864251
175 1 0.136227 0.853178 0.72978
176 1 0.104375 0.747215 0.86738
196 1 0.0517267 0.794679 0.783866
217 1 0.0486738 0.896711 0.864535
206 1 0.652026 0.965169 0.708832
45 2 0.417011 0.691584 0.920147
49 2 0.439936 0.939579 0.703345
134 1 0.449632 0.927051 0.976501
149 1 0.656452 -0.0114657 -0.00635365
234 1 0.59005 0.815728 0.759215
235 1 0.596335 0.752072 0.835306
239 1 0.507624 0.765172 0.746907
245 1 0.489389 0.875617 0.905221
222 1 0.645752 0.949248 0.715594
220 1 0.955533 0.656711 0.70185
2 2 0.778302 0.773961 0.713939
56 2 0.918016 0.695576 0.905711
57 2 0.965972 0.929555 0.678056
59 2 0.686368 0.903572 0.890646
197 1 0.967106 0.672739 0.718812
208 1 0.886828 0.90189 0.847101
213 1 0.873985 0.858488 0.873321
218 1 0.877871 0.964585 0.898372
231 1 0.731936 0.717225 0.903262
ITEM: TIMESTEP
200
ITEM: NUMBER OF ATOMS
247
ITEM: BOX BOUNDS pp pp pp
0.0000000000000000e+00 1.3600000000000000e+01
0.0000000000000000e+00 1.3600000000000000e+01
0.0000000000000000e+00 1.3600000000000000e+01
ITEM: ATOMS id type xs ys zs
1 2 0.203108 0.199287 0.230875
35 2 0.0470413 0.302894 0.11298
41 2 0.0518467 0.0662932 0.336256
47 2 0.284584 0.0461882 0.0648315
65 1 0.128424 0.121837 0.0917241
79 1 0.0707364 0.341478 0.337638
83 1 0.0718801 0.112186 0.156367
85 1 0.122785 0.107213 0.0911369
89 1 0.342365 0.0496298 0.341084
93 1 0.0693141 0.101095 0.164474
95 1 0.290625 0.304518 0.103222
81 1 0.323652 0.339436 0.0985636
6 2 0.521931 0.150436 0.332165
9 2 0.561824 0.315941 0.0692729
73 1 0.38029 0.18298 0.198843
76 1 0.362434 0.234165 0.154503
107 1 0.571516 0.137765 0.089572
135 1 0.571147 0.357479 0.340065
138 1 0.539239 0.156836 0.144559
140 1 0.563099 0.136087 0.146326
161 1 0.506443 0.162929 0.14327
16 2 0.815078 0.053087 0.0407082
36 2 0.707631 0.173681 0.208781
69 1 0.919059 0.105129 0.229334
80 1 0.961174 0.222158 0.267144
94 1 0.92233 0.142539 0.21176
113 1 0.876508 0.100396 0.255896
116 1 0.843755 0.268867 0.0867539
158 1 0.79036 0.0322119 0.295243
168 1 0.747652 0.328507 0.0853151
142 1 0.801902 0.0345007 0.2997
4 2 0.286784 0.559525 0.0499619
13 2 0.188257 0.548622 0.321622
74 1 0.169143 0.390791 0.214748
77 1 0.217462 0.375253 0.15232
117 1 0.104075 0.608194 0.141366
146 1 0.109905 0.527838 0.127477
150 1 0.110129 0.584922 0.140304
162 1 0.389184 0.594526 0.324068
165 1 0.0994187 0.612578 0.152763
54 2 0.348049 0.355793 0.303997
28 2 0.456934 0.470313 0.170146
44 2 0.588776 0.580237 0.297736
114 1 0.629471 0.391915 0.262485
125 1 0.384609 0.626985 0.260479
188 1 0.537358 0.565286 0.0327495
210 1 0.652052 0.459827 0.142653
214 1 0.602015 0.595544 0.0914629
227 1 0.441269 0.658392 0.113972
25 2 0.812186 0.356861 0.252512
5 2 0.975908 0.477836 0.224422
40 2 0.77792 0.563001 0.0569159
111 1 0.720622 0.394645 0.114103
119 1 0.86341 0.401529 0.0487945
136 1 0.79942 0.396194 0.0762289
166 1 0.920877 0.663436 0.190772
194 1 0.813925 0.588381 0.271267
225 1 0.794914 0.559369 0.275944
120 1 0.9684 0.556653 0.0368348
24 2 0.0305842 0.774305 0.069338
42 2 0.214901 0.733275 0.204529
67 1 0.0165661 0.969312 0.060309
86 1 0.131566 0.933372 0.108469
90 1 0.246274 0.93485 0.198953
123 1 0.275091 0.878874 0.105388
126 1 0.0886907 0.893984 0.215979
144 1 0.0401296 0.799168 0.285885
170 1 0.252935 0.74137 0.0112022
163 1 0.0138643 0.809391 0.326813
22 2 0.380991 0.824693 0.268597
14 2 0.468148 0.979843 0.198208
50 2 0.552546 0.799148 0.0689819
109 1 0.324443 0.876394 0.0962185
122 1 0.39144 0.713124 0.109608
141 1 0.718678 0.929237 0.150967
148 1 0.364346 0.790741 0.0750357
195 1 0.56293 0.841334 0.269586
209 1 0.562336 0.791309 0.273403
110 1 0.600687 0.980492 0.0297455
21 2 0.903874 0.914642 0.19423
63 2 0.716525 0.73562 0.188926
71 1 0.846969 0.86246 0.014659
145 1 0.910756 0.713932 0.209849
159 1 0.699654 0.914247 0.207796
191 1 0.844995 0.772793 0.0580355
192 1 0.747174 0.879269 0.0623848
212 1 0.875206 0.85025 0.0147582
230 1 0.793601 0.776273 0.0229324
8 2 0.00209133 0.304875 0.546805
11 2 0.32935 0.00925548 0.549747
75 1 0.134272 0.222454 0.41484
78 1 0.216881 0.137414 0.415049
97 1 0.140009 0.0611611 0.504262
130 1 0.0603549 0.143055 0.499994
131 1 0.120824 0.0327596 0.64638
156 1 0.116446 0.0554804 0.611911
167 1 0.220804 0.221857 0.416615
30 2 0.21192 0.213808 0.605808
23 2 0.392594 0.201722 0.46464
38 2 0.576695 0.325503 0.530946
87 1 0.349248 0.0455503 0.348342
104 1 0.416962 0.250033 0.638247
115 1 0.680176 0.212441 0.409332
180 1 0.526351 0.00920176 0.562748
204 1 0.631015 0.147168 0.488668
205 1 0.550344 0.0129338 0.551848
224 1 0.414366 0.183887 0.643213
10 2 0.864081 0.176386 0.410999
52 2 0.760202 0.0427231 0.568624
99 1 0.943524 0.0382986 0.529112
112 1 0.688984 0.155568 0.412407
157 1 0.927254 0.125891 0.605869
187 1 0.823543 0.361019 0.567583
229 1 0.776981 0.269531 0.544663
203 1 0.809833 0.303326 0.54018
15 2 0.187467 0.396667 0.468051
32 2 0.327132 0.556539 0.537352
91 1 0.0506772 0.346476 0.357154
105 1 0.225082 0.411166 0.655324
124 1 0.249979 0.713296 0.417871
172 1 0.0250346 0.540311 0.55321
199 1 0.16099 0.611797 0.503205
200 1 0.198944 0.41648 0.633394
219 1 0.0142207 0.564167 0.551466
129 1 0.374377 0.37315 0.523947
147 1 0.420891 0.528096 0.36739
160 1 0.517326 0.420777 0.372411
232 1 0.535109 0.528554 0.518509
241 1 0.676118 0.665399 0.467754
242 1 0.684738 0.439377 0.652155
246 1 0.457281 0.640685 0.628639
26 2 0.825641 0.596609 0.570838
55 2 0.723681 0.441944 0.435596
92 1 0.908472 0.413202 0.424207
173 1 0.910915 0.459536 0.429304
182 1 0.699111 0.437895 0.638865
193 1 0.735639 0.637482 0.41924
211 1 0.809058 0.547784 0.317464
3 2 0.199655 0.901675 0.378276
46 2 0.0565415 0.746555 0.555763
98 1 0.0546494 0.924022 0.497449
121 1 0.17838 0.719812 0.415607
132 1 0.168269 0.90483 0.579565
178 1 0.182556 0.888151 0.594073
228 1 0.278081 0.741723 0.414587
19 2 0.575337 0.823617 0.567856
58 2 0.463288 0.706048 0.427723
88 1 0.453438 0.93863 0.413545
177 1 0.461417 0.687445 0.599963
181 1 0.467786 0.938868 0.422471
190 1 0.627558 0.780408 0.367554
198 1 0.336899 0.835418 0.478895
226 1 0.561971 0.812773 0.298306
31 2 0.809124 0.798187 0.372572
39 2 0.641546 0.963392 0.37945
51 2 0.962545 0.634862 0.37724
100 1 0.850937 0.846442 0.553314
143 1 0.918514 0.94355 0.376143
164 1 0.929424 0.934774 0.380477
236 1 0.876609 0.798137 0.552371
237 1 0.757581 0.865318 0.543221
240 1 0.855535 0.872849 0.542821
247 1 0.720002 0.738837 0.546777
17 2 0.310926 0.305542 0.783063
29 2 0.185569 0.101171 0.789036
84 1 0.179047 0.203633 0.96574
96 1 0.216546 0.200434 0.966994
103 1 0.11061 0.286927 0.759744
106 1 0.354751 -0.000182738 0.874341
127 1 0.0882605 0.300097 0.734375
152 1 0.368785 0.116076 0.720067
72 1 0.0929713 0.0579437 0.932584
7 2 0.403034 0.213218 0.963765
34 2 0.555759 0.0572972 0.875646
101 1 0.396194 0.158073 0.683058
108 1 0.373374 0.050784 0.896468
133 1 0.345405 0.0553824 0.907563
139 1 0.690256 0.194552 0.970933
186 1 0.561143 0.291136 0.857449
202 1 0.550137 0.289868 0.842536
62 2 0.587075 0.155403 0.687753
66 1 0.9787 0.0539963 0.799378
18 2 0.983734 0.208063 0.864665
43 2 0.76224 0.282142 0.751152
70 1 0.976389 0.16399 0.0311641
128 1 0.924802 0.216807 0.688347
169 1 0.820316 0.243463 0.926687
183 1 0.726679 0.063948 0.867378
184 1 0.835595 0.105949 0.718189
207 1 0.778278 0.0816064 0.867227
221 1 0.765064 0.0477454 0.759907
12 2 0.208113 0.390366 0.957976
48 2 0.0619283 0.538752 0.863299
102 1 0.122897 0.359688 0.704052
118 1 0.0142771 0.384168 0.952826
151 1 0.130555 0.649288 0.98066
154 1 0.0686166 0.357437 0.822164
179 1 0.288767 0.548823 0.857873
216 1 0.28691 0.527421 0.828474
61 2 0.155914 0.595681 0.692226
20 2 0.536331 0.541447 0.858253
60 2 0.444037 0.444485 0.689108
82 1 0.436286 0.436588 0.996609
174 1 0.366024 0.609556 0.735588
185 1 0.599197 0.365088 0.759912
189 1 0.401129 0.408832 0.969184
201 1 0.331408 0.520591 0.861803
215 1 0.65399 0.693713 0.954929
223 1 0.52451 0.35071 0.869059
64 2 0.633328 0.625 0.676068
33 2 0.933272 0.434406 0.707237
53 2 0.701537 0.406466 0.913143
137 1 0.842787 0.289419 0.917613
155 1 0.875478 0.345418 0.883748
233 1 0.817847 0.588832 0.760454
238 1 0.752057 0.588425 0.838331
243 1 0.869328 0.491676 0.904365
244 1 0.752826 0.473934 0.730618
27 2 0.223877 0.88414 0.903761
37 2 0.306327 0.769666 0.655431
68 1 0.0424864 0.889417 0.916552
153 1 0.247997 0.928807 0.723812
171 1 0.236464 0.710274 0.81628
175 1 0.14321 0.822603 0.712366
176 1 0.100637 0.725227 0.87729
196 1 0.036119 0.77677 0.78947
217 1 0.0517383 0.906363 0.858555
206 1 0.63541 0.968041 0.691681
45 2 0.401603 0.701174 0.90428
49 2 0.446252 0.930176 0.721785
134 1 0.458629 0.984169 0.0021665
149 1 0.575561 0.983761 0.0722689
234 1 0.568552 0.782598 0.75704
235 1 0.561206 0.732964 0.813109
239 1 0.489187 0.74601 0.728231
245 1 0.46604 0.880435 0.925526
222 1 0.625441 0.943898 0.719154
220 1 0.952545 0.639704 0.704613
2 2 0.805143 0.780955 0.709467
56 2 0.909342 0.689476 0.899862
57 2 0.981876 0.922427 0.677618
59 2 0.690451 0.86798 0.883574
197 1 0.958049 0.65595 0.713113
208 1 0.86801 0.929158 0.835773
213 1 0.89585 0.88992 0.846625
218 1 0.8762 0.948825 0.878084
231 1 0.731298 0.664098 0.883404
ITEM: TIMESTEP
300
ITEM: NUMBER OF ATOMS
247
ITEM: BOX BOUNDS pp pp pp
0.0000000000000000e+00 1.3600000000000000e+01
0.0000000000000000e+00 1.3600000000000000e+01
0.0000000000000000e+00 1.3600000000000000e+01
ITEM: ATOMS id type xs ys zs
1 2 0.219467 0.194112 0.243136
35 2 0.0490493 0.284179 0.117793
41 2 0.0561621 0.0715082 0.340679
47 2 0.292943 0.0620372 0.0755358
65 1 0.117495 0.114365 0.110742
79 1 0.0744215 0.343938 0.308427
83 1 0.063904 0.112725 0.170054
85 1 0.111883 0.10046 0.0934727
89 1 0.337167 0.0600518 0.348465
93 1 0.028311 0.0710784 0.166918
95 1 0.311968 0.322929 0.107596
81 1 0.327444 0.341534 0.101948
6 2 0.516795 0.204012 0.313922
9 2 0.558909 0.320294 0.0667475
73 1 0.402162 0.192733 0.173527
76 1 0.391261 0.214199 0.154578
107 1 0.55601 0.13589 0.0704895
135 1 0.586666 0.384599 0.323131
138 1 0.553338 0.148671 0.14246
140 1 0.528315 0.159353 0.133046
161 1 0.508577 0.164711 0.131873
16 2 0.788 0.0565429 0.00789932
36 2 0.710131 0.171598 0.194877
69 1 0.880194 0.0803704 0.241053
80 1 0.948132 0.241476 0.270542
94 1 0.912985 0.199468 0.190802
113 1 0.857711 0.0586692 0.267487
116 1 0.849862 0.265464 0.0892559
158 1 0.78321 0.992237 0.322567
168 1 0.745442 0.328345 0.0687903
142 1 0.776381 0.0353594 0.339932
4 2 0.287177 0.563072 0.0524271
13 2 0.209651 0.543755 0.298273
74 1 0.180896 0.397557 0.215208
77 1 0.209124 0.391289 0.174851
117 1 0.105713 0.614364 0.138695
146 1 0.129368 0.491157 0.120252
150 1 0.109889 0.60311 0.137906
162 1 0.378752 0.563294 0.332251
165 1 0.0772634 0.623474 0.171946
54 2 0.362203 0.358708 0.296752
28 2 0.473221 0.49705 0.182256
44 2 0.616773 0.583456 0.298445
114 1 0.598678 0.352967 0.26174
125 1 0.364622 0.626934 0.267946
188 1 0.520857 0.626003 0.0638559
210 1 0.658814 0.443851 0.165286
214 1 0.580159 0.610912 0.0843609
227 1 0.415122 0.672485 0.102941
25 2 0.798337 0.356912 0.251793
5 2 0.98798 0.486007 0.224672
40 2 0.782072 0.574362 0.0531326
111 1 0.713508 0.412074 0.101635
119 1 0.888059 0.397798 0.0875716
136 1 0.825748 0.381588 0.0612715
166 1 0.923293 0.684956 0.19896
194 1 0.834059 0.592724 0.269358
225 1 0.811881 0.552585 0.271446
120 1 0.979353 0.556634 0.0393985
24 2 0.0388729 0.782218 0.0572411
42 2 0.206952 0.747786 0.212955
67 1 -0.0104553 0.965652 0.03623
86 1 0.143744 0.941363 0.10311
90 1 0.244556 0.95227 0.212019
123 1 0.266586 0.885698 0.0996874
126 1 0.108358 0.918595 0.183731
144 1 0.0306347 0.803341 0.304623
170 1 0.237302 0.743968 0.0189224
163 1 0.0123478 0.80851 0.321261
22 2 0.399035 0.808949 0.252352
14 2 0.480014 0.0104343 0.213972
50 2 0.536329 0.795868 0.0732594
109 1 0.355361 0.877149 0.079455
122 1 0.380787 0.699798 0.103923
141 1 0.708272 0.96061 0.170734
148 1 0.337355 0.805171 0.0638817
195 1 0.584977 0.813026 0.270854
209 1 0.579695 0.780107 0.273229
110 1 0.600539 0.972223 0.0485842
21 2 0.907335 0.897456 0.185084
63 2 0.729623 0.735705 0.183644
71 1 0.852611 0.866651 0.997701
145 1 0.92169 0.708023 0.209751
159 1 0.706659 0.923743 0.187719
191 1 0.839678 0.771615 0.0408377
192 1 0.761806 0.884695 0.0838902
212 1 0.852904 0.857509 0.993488
230 1 0.802959 0.774087 0.0203485
8 2 0.989316 0.308222 0.53604
11 2 0.319007 0.991803 0.550664
75 1 0.160382 0.216789 0.417048
78 1 0.209256 0.14706 0.426217
97 1 0.140917 0.0468071 0.508883
130 1 0.0516238 0.122407 0.52429
131 1 0.115871 0.0513809 0.640772
156 1 0.0880482 0.0513961 0.639188
167 1 0.190224 0.224896 0.423858
30 2 0.196887 0.21076 0.602713
23 2 0.372853 0.203448 0.467854
38 2 0.578815 0.320729 0.53946
87 1 0.351711 0.0523015 0.359484
104 1 0.410681 0.273454 0.640691
115 1 0.678715 0.225019 0.400254
180 1 0.525578 0.0205301 0.573325
204 1 0.603703 0.142181 0.470714
205 1 0.543331 0.0188406 0.565898
224 1 0.383254 0.167416 0.656095
10 2 0.852475 0.179734 0.419466
52 2 0.740889 0.0394836 0.572967
99 1 0.92409 0.0324063 0.532869
112 1 0.672215 0.156548 0.404771
157 1 0.909437 0.135784 0.602777
187 1 0.80615 0.393154 0.606037
229 1 0.753432 0.257607 0.574543
203 1 0.792411 0.309147 0.560602
15 2 0.173992 0.398197 0.463654
32 2 0.325228 0.568944 0.514457
91 1 0.0545417 0.356488 0.322589
105 1 0.282797 0.421759 0.634541
124 1 0.22729 0.708986 0.426122
172 1 0.0272604 0.50565 0.563305
199 1 0.125607 0.572621 0.483478
200 1 0.272335 0.426539 0.636527
219 1 0.0345662 0.534843 0.568176
129 1 0.387476 0.393937 0.497874
147 1 0.435147 0.533552 0.364933
160 1 0.526429 0.436576 0.387254
232 1 0.531666 0.524562 0.527451
241 1 0.675822 0.67444 0.470029
242 1 0.707711 0.45013 0.633849
246 1 0.450534 0.67151 0.629906
26 2 0.845918 0.578641 0.578397
55 2 0.719592 0.450031 0.44019
92 1 0.92336 0.405342 0.399291
173 1 0.928136 0.45919 0.416648
182 1 0.732563 0.427257 0.625132
193 1 0.740561 0.631354 0.439324
211 1 0.823162 0.544806 0.30684
3 2 0.191929 0.89661 0.372751
46 2 0.0523639 0.725741 0.559351
98 1 0.0577677 0.910045 0.503189
121 1 0.176838 0.70842 0.420523
132 1 0.146476 0.888722 0.559586
178 1 0.155535 0.881475 0.587025
228 1 0.296488 0.735231 0.429862
19 2 0.574231 0.83322 0.581647
58 2 0.483121 0.704077 0.428804
88 1 0.458186 0.888548 0.461962
177 1 0.469753 0.653915 0.620245