ITEM: TIMESTEP
0
ITEM: NUMBER OF ATOMS
16
ITEM: BOX BOUNDS pp pp pp
-3.8475000000000001e+00 8.4525000000000006e+00
-3.8475000000000001e+00 8.4525000000000006e+00
-3.8475000000000001e+00 8.4525000000000006e+00
ITEM: ATOMS id type xs ys zs
1 1 0.312805 0.312805 0.312805
5 1 0.562398 0.312805 0.312805
3 1 0.312805 0.562398 0.312805
7 1 0.562398 0.562398 0.312805
2 1 0.312805 0.312805 0.562398
6 1 0.562398 0.312805 0.562398
4 1 0.312805 0.562398 0.562398
8 1 0.562398 0.562398 0.562398
9 2 0.437602 0.437602 0.437602
13 2 0.687195 0.437602 0.437602
11 2 0.437602 0.687195 0.437602
15 2 0.687195 0.687195 0.437602
10 2 0.437602 0.437602 0.687195
14 2 0.687195 0.437602 0.687195
12 2 0.437602 0.687195 0.687195
16 2 0.687195 0.687195 0.687195
ITEM: TIMESTEP
29
ITEM: NUMBER OF ATOMS
16
ITEM: BOX BOUNDS pp pp pp
-3.8475000000000001e+00 8.4525000000000006e+00
-3.8475000000000001e+00 8.4525000000000006e+00
-3.8475000000000001e+00 8.4525000000000006e+00
ITEM: ATOMS id type xs ys zs
1 1 0.335576 0.335576 0.335576
5 1 0.551495 0.328396 0.328396
3 1 0.328396 0.551495 0.328396
7 1 0.554115 0.554115 0.303828
2 1 0.328396 0.328396 0.551495
6 1 0.554115 0.303828 0.554115
4 1 0.303828 0.554115 0.554115
8 1 0.56435 0.56435 0.56435
9 2 0.445045 0.445045 0.445045
13 2 0.689759 0.434323 0.434323
11 2 0.434323 0.689759 0.434323
15 2 0.679932 0.679932 0.433749
10 2 0.434323 0.434323 0.689759
14 2 0.679932 0.433749 0.679932
12 2 0.433749 0.679932 0.679932
16 2 0.682667 0.682667 0.682667
