ITEM: TIMESTEP
0
ITEM: NUMBER OF ATOMS
16
ITEM: BOX BOUNDS pp pp pp
-3.8475000000000001e+00 8.4525000000000006e+00
-3.8475000000000001e+00 8.4525000000000006e+00
-3.8475000000000001e+00 8.4525000000000006e+00
ITEM: ATOMS id type xs ys zs
5 1 0.551495 0.328396 0.328396
3 1 0.328396 0.551495 0.328396
7 1 0.554115 0.554115 0.303828
2 1 0.328396 0.328396 0.551495
6 1 0.554115 0.303828 0.554115
4 1 0.303828 0.554115 0.554115
1 1 0.335576 0.335576 0.335576
8 1 0.56435 0.56435 0.56435
9 2 0.445045 0.445045 0.445045
13 2 0.689759 0.434323 0.434323
11 2 0.434323 0.689759 0.434323
15 2 0.679932 0.679932 0.433749
10 2 0.434323 0.434323 0.689759
14 2 0.679932 0.433749 0.679932
12 2 0.433749 0.679932 0.679932
16 2 0.682667 0.682667 0.682667
ITEM: TIMESTEP
100
ITEM: NUMBER OF ATOMS
16
ITEM: BOX BOUNDS pp pp pp
-3.8475000000000001e+00 8.4525000000000006e+00
-3.8475000000000001e+00 8.4525000000000006e+00
-3.8475000000000001e+00 8.4525000000000006e+00
ITEM: ATOMS id type xs ys zs
5 1 0.551495 0.328396 0.328396
3 1 0.328396 0.551495 0.328396
7 1 0.554115 0.554115 0.303828
2 1 0.328396 0.328396 0.551495
6 1 0.554115 0.303828 0.554115
4 1 0.303828 0.554115 0.554115
1 1 0.335576 0.335576 0.335576
8 1 0.56435 0.56435 0.56435
9 2 0.445045 0.445045 0.445045
13 2 0.689759 0.434323 0.434323
11 2 0.434323 0.689759 0.434323
15 2 0.679932 0.679932 0.433749
10 2 0.434323 0.434323 0.689759
14 2 0.679932 0.433749 0.679932
12 2 0.433749 0.679932 0.679932
16 2 0.682667 0.682667 0.682667
ITEM: TIMESTEP
200
ITEM: NUMBER OF ATOMS
16
ITEM: BOX BOUNDS pp pp pp
-3.8475000000000001e+00 8.4525000000000006e+00
-3.8475000000000001e+00 8.4525000000000006e+00
-3.8475000000000001e+00 8.4525000000000006e+00
ITEM: ATOMS id type xs ys zs
5 1 0.551495 0.328396 0.328396
3 1 0.328396 0.551495 0.328396
7 1 0.554115 0.554115 0.303828
2 1 0.328396 0.328396 0.551495
6 1 0.554115 0.303828 0.554115
4 1 0.303828 0.554115 0.554115
1 1 0.335576 0.335576 0.335576
8 1 0.56435 0.56435 0.56435
9 2 0.445045 0.445045 0.445045
13 2 0.689759 0.434323 0.434323
11 2 0.434323 0.689759 0.434323
15 2 0.679932 0.679932 0.433749
10 2 0.434323 0.434323 0.689759
14 2 0.679932 0.433749 0.679932
12 2 0.433749 0.679932 0.679932
16 2 0.682667 0.682667 0.682667
ITEM: TIMESTEP
300
ITEM: NUMBER OF ATOMS
16
ITEM: BOX BOUNDS pp pp pp
-3.8475000000000001e+00 8.4525000000000006e+00
-3.8475000000000001e+00 8.4525000000000006e+00
-3.8475000000000001e+00 8.4525000000000006e+00
ITEM: ATOMS id type xs ys zs
5 1 0.551495 0.328396 0.328396
3 1 0.328396 0.551495 0.328396
7 1 0.554115 0.554115 0.303828
2 1 0.328396 0.328396 0.551495
6 1 0.554115 0.303828 0.554115
4 1 0.303828 0.554115 0.554115
1 1 0.335576 0.335576 0.335576
8 1 0.56435 0.56435 0.56435
9 2 0.445045 0.445045 0.445045
13 2 0.689759 0.434323 0.434323
11 2 0.434323 0.689759 0.434323
15 2 0.679932 0.679932 0.433749
10 2 0.434323 0.434323 0.689759
14 2 0.679932 0.433749 0.679932
12 2 0.433749 0.679932 0.679932
16 2 0.682667 0.682667 0.682667
ITEM: TIMESTEP
400
ITEM: NUMBER OF ATOMS
16
ITEM: BOX BOUNDS pp pp pp
-3.8475000000000001e+00 8.4525000000000006e+00
-3.8475000000000001e+00 8.4525000000000006e+00
-3.8475000000000001e+00 8.4525000000000006e+00
ITEM: ATOMS id type xs ys zs
5 1 0.551495 0.328396 0.328396
3 1 0.328396 0.551495 0.328396
7 1 0.554115 0.554115 0.303828
2 1 0.328396 0.328396 0.551495
6 1 0.554115 0.303828 0.554115
4 1 0.303828 0.554115 0.554115
1 1 0.335576 0.335576 0.335576
8 1 0.56435 0.56435 0.56435
9 2 0.445045 0.445045 0.445045
13 2 0.689759 0.434323 0.434323
11 2 0.434323 0.689759 0.434323
15 2 0.679932 0.679932 0.433749
10 2 0.434323 0.434323 0.689759
14 2 0.679932 0.433749 0.679932
12 2 0.433749 0.679932 0.679932
16 2 0.682667 0.682667 0.682667
ITEM: TIMESTEP
500
ITEM: NUMBER OF ATOMS
16
ITEM: BOX BOUNDS pp pp pp
-3.8475000000000001e+00 8.4525000000000006e+00
-3.8475000000000001e+00 8.4525000000000006e+00
-3.8475000000000001e+00 8.4525000000000006e+00
ITEM: ATOMS id type xs ys zs
5 1 0.551495 0.328396 0.328396
3 1 0.328396 0.551495 0.328396
7 1 0.554115 0.554115 0.303828
2 1 0.328396 0.328396 0.551495
6 1 0.554115 0.303828 0.554115
4 1 0.303828 0.554115 0.554115
1 1 0.335576 0.335576 0.335576
8 1 0.56435 0.56435 0.56435
9 2 0.445045 0.445045 0.445045
13 2 0.689759 0.434323 0.434323
11 2 0.434323 0.689759 0.434323
15 2 0.679932 0.679932 0.433749
10 2 0.434323 0.434323 0.689759
14 2 0.679932 0.433749 0.679932
12 2 0.433749 0.679932 0.679932
16 2 0.682667 0.682667 0.682667
ITEM: TIMESTEP
600
ITEM: NUMBER OF ATOMS
16
ITEM: BOX BOUNDS pp pp pp
-3.8475000000000001e+00 8.4525000000000006e+00
-3.8475000000000001e+00 8.4525000000000006e+00
-3.8475000000000001e+00 8.4525000000000006e+00
ITEM: ATOMS id type xs ys zs
5 1 0.551495 0.328396 0.328396
3 1 0.328396 0.551495 0.328396
7 1 0.554115 0.554115 0.303828
2 1 0.328396 0.328396 0.551495
6 1 0.554115 0.303828 0.554115
4 1 0.303828 0.554115 0.554115
1 1 0.335576 0.335576 0.335576
8 1 0.56435 0.56435 0.56435
9 2 0.445045 0.445045 0.445045
13 2 0.689759 0.434323 0.434323
11 2 0.434323 0.689759 0.434323
15 2 0.679932 0.679932 0.433749
10 2 0.434323 0.434323 0.689759
14 2 0.679932 0.433749 0.679932
12 2 0.433749 0.679932 0.679932
16 2 0.682667 0.682667 0.682667
ITEM: TIMESTEP
700
ITEM: NUMBER OF ATOMS
16
ITEM: BOX BOUNDS pp pp pp
-3.8475000000000001e+00 8.4525000000000006e+00
-3.8475000000000001e+00 8.4525000000000006e+00
-3.8475000000000001e+00 8.4525000000000006e+00
ITEM: ATOMS id type xs ys zs
5 1 0.551495 0.328396 0.328396
3 1 0.328396 0.551495 0.328396
7 1 0.554115 0.554115 0.303828
2 1 0.328396 0.328396 0.551495
6 1 0.554115 0.303828 0.554115
4 1 0.303828 0.554115 0.554115
1 1 0.335576 0.335576 0.335576
8 1 0.56435 0.56435 0.56435
9 2 0.445045 0.445045 0.445045
13 2 0.689759 0.434323 0.434323
11 2 0.434323 0.689759 0.434323
15 2 0.679932 0.679932 0.433749
10 2 0.434323 0.434323 0.689759
14 2 0.679932 0.433749 0.679932
12 2 0.433749 0.679932 0.679932
16 2 0.682667 0.682667 0.682667
ITEM: TIMESTEP
800
ITEM: NUMBER OF ATOMS
16
ITEM: BOX BOUNDS pp pp pp
-3.8475000000000001e+00 8.4525000000000006e+00
-3.8475000000000001e+00 8.4525000000000006e+00
-3.8475000000000001e+00 8.4525000000000006e+00
ITEM: ATOMS id type xs ys zs
5 1 0.551495 0.328396 0.328396
3 1 0.328396 0.551495 0.328396
7 1 0.554115 0.554115 0.303828
2 1 0.328396 0.328396 0.551495
6 1 0.554115 0.303828 0.554115
4 1 0.303828 0.554115 0.554115
1 1 0.335576 0.335576 0.335576
8 1 0.56435 0.56435 0.56435
9 2 0.445045 0.445045 0.445045
13 2 0.689759 0.434323 0.434323
11 2 0.434323 0.689759 0.434323
15 2 0.679932 0.679932 0.433749
10 2 0.434323 0.434323 0.689759
14 2 0.679932 0.433749 0.679932
12 2 0.433749 0.679932 0.679932
16 2 0.682667 0.682667 0.682667
ITEM: TIMESTEP
900
ITEM: NUMBER OF ATOMS
16
ITEM: BOX BOUNDS pp pp pp
-3.8475000000000001e+00 8.4525000000000006e+00
-3.8475000000000001e+00 8.4525000000000006e+00
-3.8475000000000001e+00 8.4525000000000006e+00
ITEM: ATOMS id type xs ys zs
5 1 0.551495 0.328396 0.328396
3 1 0.328396 0.551495 0.328396
7 1 0.554115 0.554115 0.303828
2 1 0.328396 0.328396 0.551495
6 1 0.554115 0.303828 0.554115
4 1 0.303828 0.554115 0.554115
1 1 0.335576 0.335576 0.335576
8 1 0.56435 0.56435 0.56435
9 2 0.445045 0.445045 0.445045
13 2 0.689759 0.434323 0.434323
11 2 0.434323 0.689759 0.434323
15 2 0.679932 0.679932 0.433749
10 2 0.434323 0.434323 0.689759
14 2 0.679932 0.433749 0.679932
12 2 0.433749 0.679932 0.679932
16 2 0.682667 0.682667 0.682667
ITEM: TIMESTEP
1000
ITEM: NUMBER OF ATOMS
16
ITEM: BOX BOUNDS pp pp pp
-3.8475000000000001e+00 8.4525000000000006e+00
-3.8475000000000001e+00 8.4525000000000006e+00
-3.8475000000000001e+00 8.4525000000000006e+00
ITEM: ATOMS id type xs ys zs
5 1 0.551495 0.328396 0.328396
3 1 0.328396 0.551495 0.328396
7 1 0.554115 0.554115 0.303828
2 1 0.328396 0.328396 0.551495
6 1 0.554115 0.303828 0.554115
4 1 0.303828 0.554115 0.554115
1 1 0.335576 0.335576 0.335576
8 1 0.56435 0.56435 0.56435
9 2 0.445045 0.445045 0.445045
13 2 0.689759 0.434323 0.434323
11 2 0.434323 0.689759 0.434323
15 2 0.679932 0.679932 0.433749
10 2 0.434323 0.434323 0.689759
14 2 0.679932 0.433749 0.679932
12 2 0.433749 0.679932 0.679932
16 2 0.682667 0.682667 0.682667
ITEM: TIMESTEP
1100
ITEM: NUMBER OF ATOMS
16
ITEM: BOX BOUNDS pp pp pp
-3.8475000000000001e+00 8.4525000000000006e+00
-3.8475000000000001e+00 8.4525000000000006e+00
-3.8475000000000001e+00 8.4525000000000006e+00
ITEM: ATOMS id type xs ys zs
5 1 0.551495 0.328396 0.328396
3 1 0.328396 0.551495 0.328396
7 1 0.554115 0.554115 0.303828
2 1 0.328396 0.328396 0.551495
6 1 0.554115 0.303828 0.554115
4 1 0.303828 0.554115 0.554115
1 1 0.335576 0.335576 0.335576
8 1 0.56435 0.56435 0.56435
9 2 0.445045 0.445045 0.445045
13 2 0.689759 0.434323 0.434323
11 2 0.434323 0.689759 0.434323
15 2 0.679932 0.679932 0.433749
10 2 0.434323 0.434323 0.689759
14 2 0.679932 0.433749 0.679932
12 2 0.433749 0.679932 0.679932
16 2 0.682667 0.682667 0.682667
ITEM: TIMESTEP
1200
ITEM: NUMBER OF ATOMS
16
ITEM: BOX BOUNDS pp pp pp
-3.8475000000000001e+00 8.4525000000000006e+00
-3.8475000000000001e+00 8.4525000000000006e+00
-3.8475000000000001e+00 8.4525000000000006e+00
ITEM: ATOMS id type xs ys zs
5 1 0.551495 0.328396 0.328396
3 1 0.328396 0.551495 0.328396
7 1 0.554115 0.554115 0.303828
2 1 0.328396 0.328396 0.551495
6 1 0.554115 0.303828 0.554115
4 1 0.303828 0.554115 0.554115
1 1 0.335576 0.335576 0.335576
8 1 0.56435 0.56435 0.56435
9 2 0.445045 0.445045 0.445045
13 2 0.689759 0.434323 0.434323
11 2 0.434323 0.689759 0.434323
15 2 0.679931 0.679932 0.433749
10 2 0.434323 0.434323 0.689759
14 2 0.679932 0.433749 0.679931
12 2 0.433749 0.679931 0.679932
16 2 0.682667 0.682667 0.682667
ITEM: TIMESTEP
1300
ITEM: NUMBER OF ATOMS
16
ITEM: BOX BOUNDS pp pp pp
-3.8475000000000001e+00 8.4525000000000006e+00
-3.8475000000000001e+00 8.4525000000000006e+00
-3.8475000000000001e+00 8.4525000000000006e+00
ITEM: ATOMS id type xs ys zs
5 1 0.551495 0.328396 0.328396
3 1 0.328396 0.551495 0.328396
7 1 0.554115 0.554115 0.303828
2 1 0.328396 0.328396 0.551495
6 1 0.554115 0.303828 0.554115
4 1 0.303828 0.554115 0.554115
1 1 0.335576 0.335576 0.335576
8 1 0.56435 0.56435 0.56435
9 2 0.445045 0.445045 0.445045
13 2 0.689759 0.434323 0.434323
11 2 0.434323 0.689759 0.434323
15 2 0.679932 0.679932 0.433749
10 2 0.434323 0.434323 0.689759
14 2 0.679932 0.433749 0.679932
12 2 0.433749 0.679932 0.679932
16 2 0.682667 0.682667 0.682667
ITEM: TIMESTEP
1400
ITEM: NUMBER OF ATOMS
16
ITEM: BOX BOUNDS pp pp pp
-3.8475000000000001e+00 8.4525000000000006e+00
-3.8475000000000001e+00 8.4525000000000006e+00
-3.8475000000000001e+00 8.4525000000000006e+00
ITEM: ATOMS id type xs ys zs
5 1 0.551495 0.328395 0.328397
3 1 0.328396 0.551495 0.328396
7 1 0.554115 0.554115 0.303828
2 1 0.328395 0.328396 0.551495
6 1 0.554115 0.303828 0.554114
4 1 0.303828 0.554114 0.554115
1 1 0.335576 0.335575 0.335576
8 1 0.56435 0.56435 0.56435
9 2 0.445045 0.445045 0.445045
13 2 0.689759 0.434323 0.434323
11 2 0.434323 0.689759 0.434323
15 2 0.679931 0.679932 0.433749
10 2 0.434323 0.434323 0.689759
14 2 0.679932 0.433749 0.679931
12 2 0.433749 0.679931 0.679932
16 2 0.682667 0.682667 0.682667
ITEM: TIMESTEP
1500
ITEM: NUMBER OF ATOMS
16
ITEM: BOX BOUNDS pp pp pp
-3.8475000000000001e+00 8.4525000000000006e+00
-3.8475000000000001e+00 8.4525000000000006e+00
-3.8475000000000001e+00 8.4525000000000006e+00
ITEM: ATOMS id type xs ys zs
5 1 0.551495 0.328392 0.3284
3 1 0.328398 0.551495 0.328394
7 1 0.554114 0.554116 0.303829
2 1 0.328393 0.328399 0.551494
6 1 0.554116 0.303828 0.554113
4 1 0.303828 0.554114 0.554116
1 1 0.335575 0.335575 0.335576
8 1 0.56435 0.56435 0.56435
9 2 0.445045 0.445045 0.445045
13 2 0.689759 0.434324 0.434323
11 2 0.434323 0.689759 0.434324
15 2 0.679931 0.679932 0.433749
10 2 0.434324 0.434323 0.689759
14 2 0.679932 0.433749 0.679931
12 2 0.433749 0.679931 0.679932
16 2 0.682667 0.682667 0.682667
ITEM: TIMESTEP
1600
ITEM: NUMBER OF ATOMS
16
ITEM: BOX BOUNDS pp pp pp
-3.8475000000000001e+00 8.4525000000000006e+00
-3.8475000000000001e+00 8.4525000000000006e+00
-3.8475000000000001e+00 8.4525000000000006e+00
ITEM: ATOMS id type xs ys zs
5 1 0.551495 0.328376 0.328416
3 1 0.328407 0.551496 0.328385
7 1 0.55411 0.554122 0.303829
2 1 0.328381 0.328411 0.551493
6 1 0.554121 0.303828 0.554107
4 1 0.303828 0.554109 0.554119
1 1 0.335575 0.335574 0.335578
8 1 0.56435 0.56435 0.56435
9 2 0.445045 0.445046 0.445044
13 2 0.689759 0.434325 0.434322
11 2 0.434323 0.68976 0.434324
15 2 0.67993 0.679933 0.43375
10 2 0.434324 0.434322 0.689758
14 2 0.679933 0.433749 0.67993
12 2 0.433749 0.67993 0.679933
16 2 0.682667 0.682667 0.682667
ITEM: TIMESTEP
1700
ITEM: NUMBER OF ATOMS
16
ITEM: BOX BOUNDS pp pp pp
-3.8475000000000001e+00 8.4525000000000006e+00
-3.8475000000000001e+00 8.4525000000000006e+00
-3.8475000000000001e+00 8.4525000000000006e+00
ITEM: ATOMS id type xs ys zs
5 1 0.551497 0.328289 0.328502
3 1 0.328458 0.551499 0.328334
7 1 0.554089 0.554154 0.303832
2 1 0.328318 0.328475 0.551488
6 1 0.554146 0.303826 0.554075
4 1 0.303827 0.554086 0.554138
1 1 0.335571 0.335568 0.335588
8 1 0.564351 0.564351 0.564349
9 2 0.445047 0.445049 0.445039
13 2 0.689761 0.43433 0.434317
11 2 0.434319 0.689762 0.434329
15 2 0.679925 0.679941 0.433751
10 2 0.434329 0.434317 0.689753
14 2 0.679939 0.433748 0.679922
12 2 0.433749 0.679924 0.679939
16 2 0.682667 0.682667 0.682668
ITEM: TIMESTEP
1800
ITEM: NUMBER OF ATOMS
16
ITEM: BOX BOUNDS pp pp pp
-3.8475000000000001e+00 8.4525000000000006e+00
-3.8475000000000001e+00 8.4525000000000006e+00
-3.8475000000000001e+00 8.4525000000000006e+00
ITEM: ATOMS id type xs ys zs
5 1 0.551506 0.327834 0.328955
3 1 0.328741 0.551514 0.328049
7 1 0.553976 0.554324 0.303848
2 1 0.327971 0.328822 0.551462
6 1 0.554285 0.303817 0.553908
4 1 0.303822 0.553961 0.554246
1 1 0.335553 0.335537 0.335637
8 1 0.564352 0.564354 0.564344
9 2 0.445056 0.445062 0.445016
13 2 0.689768 0.434358 0.43429
11 2 0.434296 0.689776 0.434354
15 2 0.679894 0.679981 0.433756
10 2 0.434351 0.43429 0.689732
14 2 0.679973 0.433745 0.679883
12 2 0.433747 0.679888 0.67997
16 2 0.682666 0.682665 0.682671
ITEM: TIMESTEP
1900
ITEM: NUMBER OF ATOMS
16
ITEM: BOX BOUNDS pp pp pp
-3.8475000000000001e+00 8.4525000000000006e+00
-3.8475000000000001e+00 8.4525000000000006e+00
-3.8475000000000001e+00 8.4525000000000006e+00
ITEM: ATOMS id type xs ys zs
5 1 0.551524 0.32539 0.331346
3 1 0.330307 0.551581 0.326471
7 1 0.553365 0.555308 0.303939
2 1 0.326079 0.330704 0.55132
6 1 0.55507 0.303788 0.553094
4 1 0.303815 0.553315 0.554861
1 1 0.335461 0.335385 0.335868
8 1 0.564361 0.564371 0.564322
9 2 0.445105 0.445105 0.444888
13 2 0.689792 0.434499 0.434135
11 2 0.434174 0.689835 0.434489
15 2 0.679724 0.680196 0.433787
10 2 0.43447 0.434143 0.689619
14 2 0.680157 0.433736 0.679673
12 2 0.433741 0.679699 0.680144
16 2 0.682661 0.682657 0.682685
ITEM: TIMESTEP
2000
ITEM: NUMBER OF ATOMS
16
ITEM: BOX BOUNDS pp pp pp
-3.8475000000000001e+00 8.4525000000000006e+00
-3.8475000000000001e+00 8.4525000000000006e+00
-3.8475000000000001e+00 8.4525000000000006e+00
ITEM: ATOMS id type xs ys zs
5 1 0.551031 0.311278 0.344222
3 1 0.338958 0.551614 0.317556
7 1 0.550505 0.562817 0.30476
2 1 0.315342 0.340985 0.550231
6 1 0.560394 0.303925 0.55054
4 1 0.304217 0.5508 0.558814
1 1 0.334973 0.33456 0.336853
8 1 0.564393 0.564502 0.564244
9 2 0.445459 0.444771 0.443865
13 2 0.689537 0.435095 0.432982
11 2 0.433439 0.689981 0.435272
15 2 0.678783 0.681414 0.434078
10 2 0.435041 0.433244 0.688822
14 2 0.681178 0.433829 0.678559
12 2 0.433801 0.678693 0.681118
16 2 0.68264 0.682635 0.68277
ITEM: TIMESTEP
2100
ITEM: NUMBER OF ATOMS
16
ITEM: BOX BOUNDS pp pp pp
-3.8475000000000001e+00 8.4525000000000006e+00
-3.8475000000000001e+00 8.4525000000000006e+00
-3.8475000000000001e+00 8.4525000000000006e+00
ITEM: ATOMS id type xs ys zs
3 1 0.37651 0.548393 0.27961
7 1 0.553233 0.593554 0.299081
1 1 0.330996 0.328822 0.339919
5 1 0.543989 0.265258 0.39001
6 1 0.588867 0.300428 0.565328
2 1 0.274106 0.382343 0.540641
4 1 0.305674 0.559239 0.580463
8 1 0.564454 0.565371 0.564518
9 2 0.443715 0.438949 0.437347
13 2 0.685404 0.43578 0.425861
11 2 0.428302 0.687806 0.439965
15 2 0.674086 0.688 0.438118
10 2 0.436943 0.42738 0.682139
14 2 0.68667 0.437368 0.673322
12 2 0.436238 0.674013 0.686693
16 2 0.682654 0.682898 0.683486
ITEM: TIMESTEP
2200
ITEM: NUMBER OF ATOMS
16
ITEM: BOX BOUNDS pp pp pp
-3.8475000000000001e+00 8.4525000000000006e+00
-3.8475000000000001e+00 8.4525000000000006e+00
-3.8475000000000001e+00 8.4525000000000006e+00
ITEM: ATOMS id type xs ys zs
3 1 0.410336 0.552992 0.275751
7 1 0.590101 0.594072 0.292294
1 1 0.311434 0.303699 0.354434
5 1 0.538912 0.278202 0.416872
6 1 0.5973 0.284811 0.595799
2 1 0.277861 0.406863 0.525407
4 1 0.287003 0.588144 0.587874
8 1 0.563533 0.562817 0.562138
9 2 0.433149 0.437059 0.422081
13 2 0.673147 0.435238 0.423475
11 2 0.423786 0.673968 0.441407
15 2 0.666403 0.693869 0.445006
10 2 0.439791 0.422587 0.667787
14 2 0.694795 0.447265 0.667156
12 2 0.445842 0.666363 0.696987
16 2 0.684509 0.686663 0.68642
ITEM: TIMESTEP
2300
ITEM: NUMBER OF ATOMS
16
ITEM: BOX BOUNDS pp pp pp
-3.8475000000000001e+00 8.4525000000000006e+00
-3.8475000000000001e+00 8.4525000000000006e+00
-3.8475000000000001e+00 8.4525000000000006e+00
ITEM: ATOMS id type xs ys zs
3 1 0.41698 0.603574 0.264515
7 1 0.602035 0.570918 0.286119
1 1 0.300865 0.286995 0.410952
5 1 0.562252 0.275553 0.411354
6 1 0.588831 0.290112 0.592283
2 1 0.274186 0.392907 0.551868
4 1 0.296399 0.574092 0.582119
8 1 0.564766 0.564975 0.563788
9 2 0.42379 0.434622 0.399473
13 2 0.669562 0.442525 0.432211
11 2 0.423317 0.677712 0.45029
15 2 0.671134 0.689933 0.443072
10 2 0.443353 0.425984 0.654244
14 2 0.693914 0.443846 0.672811
12 2 0.440182 0.662884 0.694148
16 2 0.686456 0.68957 0.686994
ITEM: TIMESTEP
2400
ITEM: NUMBER OF ATOMS
16
ITEM: BOX BOUNDS pp pp pp
-3.8475000000000001e+00 8.4525000000000006e+00
-3.8475000000000001e+00 8.4525000000000006e+00
-3.8475000000000001e+00 8.4525000000000006e+00
ITEM: ATOMS id type xs ys zs
3 1 0.412515 0.604847 0.278819
7 1 0.590846 0.550634 0.290233
1 1 0.315612 0.274014 0.411389
5 1 0.543422 0.286828 0.389831
6 1 0.600612 0.296361 0.572715
2 1 0.278775 0.373759 0.564521
4 1 0.302808 0.565626 0.561335
8 1 0.562565 0.564754 0.560116
9 2 0.425875 0.445465 0.401368
13 2 0.67519 0.439405 0.438233
11 2 0.424215 0.691937 0.45697
15 2 0.675481 0.684463 0.429675
10 2 0.447663 0.424154 0.655735
14 2 0.686906 0.441681 0.685105
12 2 0.435298 0.668279 0.695602
16 2 0.680804 0.685469 0.681643
ITEM: TIMESTEP
2500
ITEM: NUMBER OF ATOMS
16
ITEM: BOX BOUNDS pp pp pp
-3.8475000000000001e+00 8.4525000000000006e+00
-3.8475000000000001e+00 8.4525000000000006e+00
-3.8475000000000001e+00 8.4525000000000006e+00
ITEM: ATOMS id type xs ys zs
3 1 0.401686 0.600784 0.286232
7 1 0.58161 0.551659 0.285201
1 1 0.357906 0.283757 0.37886
5 1 0.540965 0.282814 0.396195
6 1 0.593568 0.283931 0.571316
2 1 0.29732 0.364044 0.533901
4 1 0.303162 0.555646 0.565535
8 1 0.557765 0.561126 0.560715
9 2 0.430501 0.46606 0.424741
13 2 0.673593 0.429666 0.439326
11 2 0.429919 0.706895 0.451388
15 2 0.67139 0.675456 0.423492
10 2 0.442431 0.417536 0.670728
14 2 0.685619 0.443992 0.683675
12 2 0.433121 0.665119 0.697376
16 2 0.676121 0.686897 0.670216
ITEM: TIMESTEP
2600
ITEM: NUMBER OF ATOMS
16
ITEM: BOX BOUNDS pp pp pp
-3.8475000000000001e+00 8.4525000000000006e+00
-3.8475000000000001e+00 8.4525000000000006e+00
-3.8475000000000001e+00 8.4525000000000006e+00
ITEM: ATOMS id type xs ys zs
3 1 0.4 0.617652 0.283359
7 1 0.578675 0.550101 0.285624
1 1 0.366459 0.298747 0.365402
5 1 0.539554 0.2762 0.410145
6 1 0.591704 0.285376 0.607358
2 1 0.292605 0.367862 0.535555
4 1 0.306995 0.55286 0.578102
8 1 0.555818 0.558685 0.559483
9 2 0.43439 0.461226 0.416503
13 2 0.678245 0.427672 0.435949
11 2 0.426167 0.714906 0.455032
15 2 0.669955 0.670741 0.424617
10 2 0.438194 0.414534 0.674988
14 2 0.684776 0.44477 0.677074
12 2 0.435 0.656896 0.69408
16 2 0.676677 0.693149 0.667368
ITEM: TIMESTEP
2700
ITEM: NUMBER OF ATOMS
16
ITEM: BOX BOUNDS pp pp pp
-3.8475000000000001e+00 8.4525000000000006e+00
-3.8475000000000001e+00 8.4525000000000006e+00
-3.8475000000000001e+00 8.4525000000000006e+00
ITEM: ATOMS id type xs ys zs
3 1 0.416445 0.621395 0.282813
7 1 0.591379 0.545468 0.27999
1 1 0.343926 0.284201 0.387392
5 1 0.525269 0.282629 0.426203
6 1 0.601001 0.292183 0.601968
2 1 0.294812 0.369014 0.528045
4 1 0.31144 0.562955 0.550004
8 1 0.558782 0.564279 0.558492
9 2 0.433828 0.463269 0.405729
13 2 0.672292 0.421441 0.436385
11 2 0.420636 0.702049 0.467584
15 2 0.667083 0.674407 0.423175
10 2 0.446243 0.414102 0.658706
14 2 0.682806 0.452547 0.683604
12 2 0.440394 0.658221 0.703691
16 2 0.676458 0.693091 0.670034
ITEM: TIMESTEP
2800
ITEM: NUMBER OF ATOMS
16
ITEM: BOX BOUNDS pp pp pp
-3.8475000000000001e+00 8.4525000000000006e+00
-3.8475000000000001e+00 8.4525000000000006e+00
-3.8475000000000001e+00 8.4525000000000006e+00
ITEM: ATOMS id type xs ys zs
3 1 0.451882 0.627479 0.278722
7 1 0.60896 0.534206 0.276893
1 1 0.342098 0.280201 0.395541
5 1 0.54201 0.270912 0.415822
6 1 0.606154 0.278296 0.58566
2 1 0.272545 0.381458 0.542636
4 1 0.306703 0.566716 0.580937
8 1 0.554234 0.565286 0.558697
9 2 0.423341 0.457937 0.392416
13 2 0.663401 0.427835 0.448418
11 2 0.42522 0.700431 0.466173
15 2 0.660664 0.673132 0.418472
10 2 0.44702 0.413272 0.643616
14 2 0.689632 0.459113 0.689295
12 2 0.436989 0.655675 0.716844
16 2 0.679947 0.697454 0.667161
ITEM: TIMESTEP
2900
ITEM: NUMBER OF ATOMS
16
ITEM: BOX BOUNDS pp pp pp
-3.8475000000000001e+00 8.4525000000000006e+00
-3.8475000000000001e+00 8.4525000000000006e+00
-3.8475000000000001e+00 8.4525000000000006e+00
ITEM: ATOMS id type xs ys zs
3 1 0.500577 0.654186 0.293492
7 1 0.614554 0.501741 0.278307
1 1 0.350216 0.266492 0.393756
5 1 0.525123 0.288519 0.401538
6 1 0.596702 0.292426 0.599743
2 1 0.286977 0.388777 0.5261
4 1 0.29241 0.561394 0.574679
8 1 0.558139 0.558113 0.554483
9 2 0.424745 0.465897 0.402072
13 2 0.66842 0.427267 0.451284
11 2 0.415838 0.700877 0.478246
15 2 0.651205 0.673384 0.406545
10 2 0.444625 0.412902 0.651089
14 2 0.683689 0.455552 0.690698
12 2 0.449951 0.642437 0.709408
16 2 0.674678 0.704221 0.657223
ITEM: TIMESTEP
3000
ITEM: NUMBER OF ATOMS
16
ITEM: BOX BOUNDS pp pp pp
-3.8475000000000001e+00 8.4525000000000006e+00
-3.8475000000000001e+00 8.4525000000000006e+00
-3.8475000000000001e+00 8.4525000000000006e+00
ITEM: ATOMS id type xs ys zs
3 1 0.473024 0.64998 0.284658
7 1 0.596785 0.512708 0.271634
1 1 0.360668 0.301647 0.378208
5 1 0.539208 0.275231 0.426268
6 1 0.595554 0.288402 0.594856
2 1 0.284068 0.37198 0.527096
4 1 0.306294 0.557114 0.570359
8 1 0.557117 0.55911 0.552862
9 2 0.44011 0.47293 0.403342
13 2 0.682568 0.418943 0.444487
11 2 0.41503 0.710012 0.485887
15 2 0.652554 0.667218 0.404157
10 2 0.429609 0.404016 0.658415
14 2 0.667574 0.462452 0.695877
12 2 0.454853 0.63814 0.718039
16 2 0.674755 0.707354 0.641626
ITEM: TIMESTEP
3100
ITEM: NUMBER OF ATOMS
16
ITEM: BOX BOUNDS pp pp pp
-3.8475000000000001e+00 8.4525000000000006e+00
-3.8475000000000001e+00 8.4525000000000006e+00
-3.8475000000000001e+00 8.4525000000000006e+00
ITEM: ATOMS id type xs ys zs
3 1 0.445661 0.646566 0.295095
7 1 0.599544 0.519207 0.262461
1 1 0.357998 0.295777 0.353541
5 1 0.53833 0.286151 0.431867
6 1 0.606805 0.287166 0.615023
2 1 0.287128 0.378978 0.50217
4 1 0.334595 0.562571 0.570888
8 1 0.538093 0.55586 0.556032
9 2 0.443479 0.467365 0.401096
13 2 0.677409 0.420536 0.451692
11 2 0.437213 0.721079 0.48871
15 2 0.644145 0.659862 0.39408
10 2 0.433357 0.391984 0.657333
14 2 0.654042 0.47322 0.698424
12 2 0.459767 0.632757 0.733199
16 2 0.669127 0.709016 0.633438
ITEM: TIMESTEP
3200
ITEM: NUMBER OF ATOMS
16
ITEM: BOX BOUNDS pp pp pp
-3.8475000000000001e+00 8.4525000000000006e+00
-3.8475000000000001e+00 8.4525000000000006e+00
-3.8475000000000001e+00 8.4525000000000006e+00
ITEM: ATOMS id type xs ys zs
3 1 0.469221 0.648545 0.298126
7 1 0.590211 0.49808 0.265641
1 1 0.36414 0.2832 0.362069
5 1 0.522233 0.271429 0.451652
6 1 0.614071 0.290453 0.612447
2 1 0.279086 0.390378 0.500946
4 1 0.341439 0.558406 0.560806
8 1 0.533829 0.555986 0.549227
9 2 0.437153 0.460433 0.385886
13 2 0.670994 0.423731 0.46167
11 2 0.449951 0.743341 0.507604
15 2 0.642445 0.659189 0.381232
10 2 0.436945 0.38601 0.642701
14 2 0.663046 0.472897 0.709086
12 2 0.462407 0.622447 0.737675
16 2 0.653618 0.719431 0.62761
ITEM: TIMESTEP
3300
ITEM: NUMBER OF ATOMS
16
ITEM: BOX BOUNDS pp pp pp
-3.8475000000000001e+00 8.4525000000000006e+00
-3.8475000000000001e+00 8.4525000000000006e+00
-3.8475000000000001e+00 8.4525000000000006e+00
ITEM: ATOMS id type xs ys zs
3 1 0.467818 0.650247 0.299853
7 1 0.599981 0.501122 0.27237
1 1 0.345377 0.277726 0.386494
5 1 0.519644 0.273668 0.47124
6 1 0.637435 0.285933 0.632705
2 1 0.274276 0.391045 0.508957
4 1 0.335744 0.571008 0.553527
8 1 0.540541 0.560693 0.542358
9 2 0.433106 0.458164 0.38884
13 2 0.665708 0.418515 0.460355
11 2 0.449118 0.75186 0.511442
15 2 0.647462 0.656886 0.386951
10 2 0.443425 0.386073 0.620425
14 2 0.663318 0.477951 0.702109
12 2 0.456212 0.608474 0.731715
16 2 0.656067 0.724682 0.629941
ITEM: TIMESTEP
3400
ITEM: NUMBER OF ATOMS
16
ITEM: BOX BOUNDS pp pp pp
-3.8475000000000001e+00 8.4525000000000006e+00
-3.8475000000000001e+00 8.4525000000000006e+00
-3.8475000000000001e+00 8.4525000000000006e+00
ITEM: ATOMS id type xs ys zs
3 1 0.470226 0.653753 0.303418
7 1 0.594454 0.505885 0.266006
1 1 0.353622 0.284436 0.413758
5 1 0.530835 0.266006 0.460171
6 1 0.629371 0.288762 0.616922
2 1 0.270811 0.405058 0.514652
4 1 0.337645 0.573057 0.556086
8 1 0.536762 0.554604 0.539453
9 2 0.425174 0.458992 0.384322
13 2 0.666816 0.412429 0.452393
11 2 0.449958 0.741585 0.501282
15 2 0.650919 0.658583 0.405841
10 2 0.447337 0.376229 0.628759
14 2 0.664448 0.489724 0.693485
12 2 0.448821 0.617048 0.724146
16 2 0.659994 0.721463 0.640585
ITEM: TIMESTEP
3500
ITEM: NUMBER OF ATOMS
16
ITEM: BOX BOUNDS pp pp pp
-3.8475000000000001e+00 8.4525000000000006e+00
-3.8475000000000001e+00 8.4525000000000006e+00
-3.8475000000000001e+00 8.4525000000000006e+00
ITEM: ATOMS id type xs ys zs
3 1 0.480625 0.670946 0.303583
7 1 0.592008 0.519835 0.266788
1 1 0.354148 0.267662 0.458447
5 1 0.533634 0.269865 0.446621
6 1 0.637484 0.28963 0.607955
2 1 0.270682 0.404432 0.535843
4 1 0.328252 0.579452 0.548901
8 1 0.533331 0.55726 0.543343
9 2 0.432366 0.458808 0.392513
13 2 0.666479 0.421745 0.44266
11 2 0.450434 0.735809 0.491898
15 2 0.663226 0.655879 0.398025
10 2 0.442059 0.373589 0.627765
14 2 0.660455 0.471221 0.690791
12 2 0.447982 0.626346 0.725457
16 2 0.648368 0.723693 0.648344
ITEM: TIMESTEP
3600
ITEM: NUMBER OF ATOMS
16
ITEM: BOX BOUNDS pp pp pp
-3.8475000000000001e+00 8.4525000000000006e+00
-3.8475000000000001e+00 8.4525000000000006e+00
-3.8475000000000001e+00 8.4525000000000006e+00
ITEM: ATOMS id type xs ys zs
7 1 0.595236 0.513316 0.273262
3 1 0.485611 0.664611 0.297486
1 1 0.355109 0.268722 0.495186
5 1 0.532775 0.280697 0.442193
6 1 0.633807 0.269032 0.596577
2 1 0.263319 0.429827 0.535218
4 1 0.342191 0.588472 0.545193
8 1 0.537825 0.560569 0.541474
9 2 0.420902 0.450699 0.394918
15 2 0.661265 0.672328 0.392898
10 2 0.445597 0.371399 0.633415
13 2 0.680528 0.43021 0.443349
11 2 0.46044 0.746124 0.488582
16 2 0.638806 0.718985 0.639191
14 2 0.652283 0.464314 0.698135
12 2 0.446433 0.607767 0.722048
ITEM: TIMESTEP
3700
ITEM: NUMBER OF ATOMS
16
ITEM: BOX BOUNDS pp pp pp
-3.8475000000000001e+00 8.4525000000000006e+00
-3.8475000000000001e+00 8.4525000000000006e+00
-3.8475000000000001e+00 8.4525000000000006e+00
ITEM: ATOMS id type xs ys zs
7 1 0.594078 0.503442 0.263981
3 1 0.468104 0.650112 0.302166
1 1 0.346257 0.27061 0.461151
5 1 0.527509 0.272993 0.4448
6 1 0.63226 0.301874 0.603456
2 1 0.278902 0.429512 0.531363
4 1 0.333107 0.612057 0.543061
8 1 0.526145 0.564578 0.547024
9 2 0.436166 0.45138 0.392794
15 2 0.656125 0.666791 0.390846
10 2 0.442618 0.361057 0.633979
13 2 0.664235 0.434137 0.459121
11 2 0.458704 0.761277 0.479742
16 2 0.651996 0.709083 0.638851
14 2 0.664341 0.476766 0.697295
12 2 0.444937 0.591585 0.729542
ITEM: TIMESTEP
3800
ITEM: NUMBER OF ATOMS
16
ITEM: BOX BOUNDS pp pp pp
-3.8475000000000001e+00 8.4525000000000006e+00
-3.8475000000000001e+00 8.4525000000000006e+00
-3.8475000000000001e+00 8.4525000000000006e+00
ITEM: ATOMS id type xs ys zs
7 1 0.598406 0.507329 0.270542
3 1 0.463865 0.65363 0.289298
1 1 0.351162 0.296686 0.442804
5 1 0.54299 0.265317 0.466005
6 1 0.649752 0.279898 0.623886
2 1 0.279297 0.444336 0.526883
4 1 0.344785 0.616079 0.572403
8 1 0.5241 0.559403 0.547741
9 2 0.428501 0.465753 0.389593
15 2 0.647754 0.657601 0.389165
10 2 0.446819 0.357671 0.61645
13 2 0.666798 0.420093 0.459775
11 2 0.459079 0.755553 0.470369
16 2 0.645246 0.717237 0.637224
14 2 0.659112 0.484148 0.699178
12 2 0.450182 0.58832 0.746556
ITEM: TIMESTEP
3900
ITEM: NUMBER OF ATOMS
16
ITEM: BOX BOUNDS pp pp pp
-3.8475000000000001e+00 8.4525000000000006e+00
-3.8475000000000001e+00 8.4525000000000006e+00
-3.8475000000000001e+00 8.4525000000000006e+00
ITEM: ATOMS id type xs ys zs
7 1 0.592967 0.491658 0.268431
3 1 0.484189 0.65811 0.276541
1 1 0.359523 0.300422 0.445453
5 1 0.536493 0.253117 0.457214
6 1 0.64177 0.276616 0.62164
2 1 0.283892 0.444289 0.526482
4 1 0.346858 0.611859 0.58194
8 1 0.52793 0.563052 0.549815
9 2 0.429797 0.48817 0.390575
15 2 0.653548 0.647845 0.391674
10 2 0.45585 0.374171 0.610398
13 2 0.66558 0.412057 0.456812
11 2 0.447409 0.740561 0.466498
16 2 0.626341 0.729997 0.635074
14 2 0.659349 0.474919 0.70284
12 2 0.459341 0.586329 0.758362
ITEM: TIMESTEP
4000
ITEM: NUMBER OF ATOMS
16
ITEM: BOX BOUNDS pp pp pp
-3.8475000000000001e+00 8.4525000000000006e+00
-3.8475000000000001e+00 8.4525000000000006e+00
-3.8475000000000001e+00 8.4525000000000006e+00
ITEM: ATOMS id type xs ys zs
7 1 0.603244 0.491849 0.268475
3 1 0.505799 0.660247 0.267569
1 1 0.369133 0.314287 0.425552
5 1 0.535184 0.244284 0.458984
6 1 0.634042 0.281804 0.619429