ITEM: TIMESTEP
0
ITEM: NUMBER OF ATOMS
1536
ITEM: BOX BOUNDS pp pp pp
-4.6375100000000002e-01 2.6736249999999998e+01
-4.6375100000000002e-01 2.6736249999999998e+01
-4.6375100000000002e-01 2.6736249999999998e+01
ITEM: ATOMS id type xs ys zs
1 2 0.110524 0.110524 0.110524
513 1 0.0170497 0.0170497 0.0170497
577 1 0.0170497 0.0793658 0.0793658
961 1 0.0170497 0.141682 0.141682
1025 1 0.0793658 0.0793658 0.0170497
1089 1 0.0793658 0.0170497 0.0793658
1409 1 0.141682 0.0170497 0.141682
1473 1 0.141682 0.141682 0.0170497
321 2 0.17284 0.0482078 0.0482078
529 1 0.266314 0.0170497 0.0170497
593 1 0.266314 0.0793658 0.0793658
641 1 0.203998 0.0793658 0.141682
977 1 0.266314 0.141682 0.141682
1281 1 0.203998 0.141682 0.0793658
17 2 0.359789 0.110524 0.110524
337 2 0.422105 0.0482078 0.0482078
1041 1 0.328631 0.0793658 0.0170497
1105 1 0.328631 0.0170497 0.0793658
1425 1 0.390947 0.0170497 0.141682
1489 1 0.390947 0.141682 0.0170497
545 1 0.515579 0.0170497 0.0170497
609 1 0.515579 0.0793658 0.0793658
657 1 0.453263 0.0793658 0.141682
993 1 0.515579 0.141682 0.141682
1297 1 0.453263 0.141682 0.0793658
33 2 0.609053 0.110524 0.110524
353 2 0.67137 0.0482078 0.0482078
673 1 0.702528 0.0793658 0.141682
1057 1 0.577895 0.0793658 0.0170497
1121 1 0.577895 0.0170497 0.0793658
1313 1 0.702528 0.141682 0.0793658
1441 1 0.640211 0.0170497 0.141682
1505 1 0.640211 0.141682 0.0170497
561 1 0.764844 0.0170497 0.0170497
625 1 0.764844 0.0793658 0.0793658
1009 1 0.764844 0.141682 0.141682
1073 1 0.82716 0.0793658 0.0170497
1137 1 0.82716 0.0170497 0.0793658
49 2 0.858318 0.110524 0.110524
369 2 0.920634 0.0482078 0.0482078
689 1 0.951792 0.0793658 0.141682
1329 1 0.951792 0.141682 0.0793658
1457 1 0.889476 0.0170497 0.141682
1521 1 0.889476 0.141682 0.0170497
193 2 0.0482078 0.17284 0.0482078
517 1 0.0170497 0.266314 0.0170497
769 1 0.141682 0.203998 0.0793658
833 1 0.0793658 0.203998 0.141682
1093 1 0.0793658 0.266314 0.0793658
1413 1 0.141682 0.266314 0.141682
385 2 0.235156 0.235156 0.110524
533 1 0.266314 0.266314 0.0170497
1345 1 0.203998 0.203998 0.0170497
209 2 0.297472 0.17284 0.0482078
785 1 0.390947 0.203998 0.0793658
849 1 0.328631 0.203998 0.141682
1109 1 0.328631 0.266314 0.0793658
1429 1 0.390947 0.266314 0.141682
225 2 0.546737 0.17284 0.0482078
401 2 0.484421 0.235156 0.110524
549 1 0.515579 0.266314 0.0170497
1361 1 0.453263 0.203998 0.0170497
801 1 0.640211 0.203998 0.0793658
865 1 0.577895 0.203998 0.141682
1125 1 0.577895 0.266314 0.0793658
1377 1 0.702528 0.203998 0.0170497
1445 1 0.640211 0.266314 0.141682
241 2 0.796002 0.17284 0.0482078
417 2 0.733686 0.235156 0.110524
565 1 0.764844 0.266314 0.0170497
881 1 0.82716 0.203998 0.141682
1141 1 0.82716 0.266314 0.0793658
433 2 0.98295 0.235156 0.110524
817 1 0.889476 0.203998 0.0793658
1393 1 0.951792 0.203998 0.0170497
1461 1 0.889476 0.266314 0.141682
5 2 0.110524 0.359789 0.110524
197 2 0.0482078 0.422105 0.0482078
581 1 0.0170497 0.328631 0.0793658
965 1 0.0170497 0.390947 0.141682
1029 1 0.0793658 0.328631 0.0170497
1477 1 0.141682 0.390947 0.0170497
325 2 0.17284 0.297472 0.0482078
597 1 0.266314 0.328631 0.0793658
645 1 0.203998 0.328631 0.141682
981 1 0.266314 0.390947 0.141682
1285 1 0.203998 0.390947 0.0793658
21 2 0.359789 0.359789 0.110524
213 2 0.297472 0.422105 0.0482078
341 2 0.422105 0.297472 0.0482078
1045 1 0.328631 0.328631 0.0170497
1493 1 0.390947 0.390947 0.0170497
229 2 0.546737 0.422105 0.0482078
613 1 0.515579 0.328631 0.0793658
661 1 0.453263 0.328631 0.141682
997 1 0.515579 0.390947 0.141682
1301 1 0.453263 0.390947 0.0793658
37 2 0.609053 0.359789 0.110524
357 2 0.67137 0.297472 0.0482078
677 1 0.702528 0.328631 0.141682
1061 1 0.577895 0.328631 0.0170497
1317 1 0.702528 0.390947 0.0793658
1509 1 0.640211 0.390947 0.0170497
245 2 0.796002 0.422105 0.0482078
629 1 0.764844 0.328631 0.0793658
1013 1 0.764844 0.390947 0.141682
1077 1 0.82716 0.328631 0.0170497
53 2 0.858318 0.359789 0.110524
373 2 0.920634 0.297472 0.0482078
693 1 0.951792 0.328631 0.141682
1333 1 0.951792 0.390947 0.0793658
1525 1 0.889476 0.390947 0.0170497
521 1 0.0170497 0.515579 0.0170497
773 1 0.141682 0.453263 0.0793658
837 1 0.0793658 0.453263 0.141682
1097 1 0.0793658 0.515579 0.0793658
1417 1 0.141682 0.515579 0.141682
329 2 0.17284 0.546737 0.0482078
389 2 0.235156 0.484421 0.110524
537 1 0.266314 0.515579 0.0170497
1349 1 0.203998 0.453263 0.0170497
345 2 0.422105 0.546737 0.0482078
789 1 0.390947 0.453263 0.0793658
853 1 0.328631 0.453263 0.141682
1113 1 0.328631 0.515579 0.0793658
1433 1 0.390947 0.515579 0.141682
405 2 0.484421 0.484421 0.110524
553 1 0.515579 0.515579 0.0170497
1365 1 0.453263 0.453263 0.0170497
361 2 0.67137 0.546737 0.0482078
805 1 0.640211 0.453263 0.0793658
869 1 0.577895 0.453263 0.141682
1129 1 0.577895 0.515579 0.0793658
1381 1 0.702528 0.453263 0.0170497
1449 1 0.640211 0.515579 0.141682
421 2 0.733686 0.484421 0.110524
569 1 0.764844 0.515579 0.0170497
885 1 0.82716 0.453263 0.141682
1145 1 0.82716 0.515579 0.0793658
377 2 0.920634 0.546737 0.0482078
437 2 0.98295 0.484421 0.110524
821 1 0.889476 0.453263 0.0793658
1397 1 0.951792 0.453263 0.0170497
1465 1 0.889476 0.515579 0.141682
9 2 0.110524 0.609053 0.110524
201 2 0.0482078 0.67137 0.0482078
585 1 0.0170497 0.577895 0.0793658
777 1 0.141682 0.702528 0.0793658
841 1 0.0793658 0.702528 0.141682
969 1 0.0170497 0.640211 0.141682
1033 1 0.0793658 0.577895 0.0170497
1481 1 0.141682 0.640211 0.0170497
601 1 0.266314 0.577895 0.0793658
649 1 0.203998 0.577895 0.141682
985 1 0.266314 0.640211 0.141682
1289 1 0.203998 0.640211 0.0793658
1353 1 0.203998 0.702528 0.0170497
25 2 0.359789 0.609053 0.110524
217 2 0.297472 0.67137 0.0482078
793 1 0.390947 0.702528 0.0793658
857 1 0.328631 0.702528 0.141682
1049 1 0.328631 0.577895 0.0170497
1497 1 0.390947 0.640211 0.0170497
233 2 0.546737 0.67137 0.0482078
617 1 0.515579 0.577895 0.0793658
665 1 0.453263 0.577895 0.141682
1001 1 0.515579 0.640211 0.141682
1305 1 0.453263 0.640211 0.0793658
1369 1 0.453263 0.702528 0.0170497
41 2 0.609053 0.609053 0.110524
681 1 0.702528 0.577895 0.141682
809 1 0.640211 0.702528 0.0793658
873 1 0.577895 0.702528 0.141682
1065 1 0.577895 0.577895 0.0170497
1321 1 0.702528 0.640211 0.0793658
1385 1 0.702528 0.702528 0.0170497
1513 1 0.640211 0.640211 0.0170497
249 2 0.796002 0.67137 0.0482078
633 1 0.764844 0.577895 0.0793658
889 1 0.82716 0.702528 0.141682
1017 1 0.764844 0.640211 0.141682
1081 1 0.82716 0.577895 0.0170497
57 2 0.858318 0.609053 0.110524
697 1 0.951792 0.577895 0.141682
825 1 0.889476 0.702528 0.0793658
1337 1 0.951792 0.640211 0.0793658
1401 1 0.951792 0.702528 0.0170497
1529 1 0.889476 0.640211 0.0170497
525 1 0.0170497 0.764844 0.0170497
589 1 0.0170497 0.82716 0.0793658
1037 1 0.0793658 0.82716 0.0170497
1101 1 0.0793658 0.764844 0.0793658
1421 1 0.141682 0.764844 0.141682
333 2 0.17284 0.796002 0.0482078
393 2 0.235156 0.733686 0.110524
541 1 0.266314 0.764844 0.0170497
605 1 0.266314 0.82716 0.0793658
653 1 0.203998 0.82716 0.141682
349 2 0.422105 0.796002 0.0482078
1053 1 0.328631 0.82716 0.0170497
1117 1 0.328631 0.764844 0.0793658
1437 1 0.390947 0.764844 0.141682
409 2 0.484421 0.733686 0.110524
557 1 0.515579 0.764844 0.0170497
621 1 0.515579 0.82716 0.0793658
669 1 0.453263 0.82716 0.141682
365 2 0.67137 0.796002 0.0482078
685 1 0.702528 0.82716 0.141682
1069 1 0.577895 0.82716 0.0170497
1133 1 0.577895 0.764844 0.0793658
1453 1 0.640211 0.764844 0.141682
425 2 0.733686 0.733686 0.110524
573 1 0.764844 0.764844 0.0170497
637 1 0.764844 0.82716 0.0793658
1085 1 0.82716 0.82716 0.0170497
1149 1 0.82716 0.764844 0.0793658
381 2 0.920634 0.796002 0.0482078
441 2 0.98295 0.733686 0.110524
701 1 0.951792 0.82716 0.141682
1469 1 0.889476 0.764844 0.141682
13 2 0.110524 0.858318 0.110524
205 2 0.0482078 0.920634 0.0482078
781 1 0.141682 0.951792 0.0793658
845 1 0.0793658 0.951792 0.141682
973 1 0.0170497 0.889476 0.141682
1485 1 0.141682 0.889476 0.0170497
397 2 0.235156 0.98295 0.110524
989 1 0.266314 0.889476 0.141682
1293 1 0.203998 0.889476 0.0793658
1357 1 0.203998 0.951792 0.0170497
29 2 0.359789 0.858318 0.110524
221 2 0.297472 0.920634 0.0482078
797 1 0.390947 0.951792 0.0793658
861 1 0.328631 0.951792 0.141682
1501 1 0.390947 0.889476 0.0170497
237 2 0.546737 0.920634 0.0482078
413 2 0.484421 0.98295 0.110524
1005 1 0.515579 0.889476 0.141682
1309 1 0.453263 0.889476 0.0793658
1373 1 0.453263 0.951792 0.0170497
45 2 0.609053 0.858318 0.110524
813 1 0.640211 0.951792 0.0793658
877 1 0.577895 0.951792 0.141682
1325 1 0.702528 0.889476 0.0793658
1389 1 0.702528 0.951792 0.0170497
1517 1 0.640211 0.889476 0.0170497
253 2 0.796002 0.920634 0.0482078
429 2 0.733686 0.98295 0.110524
893 1 0.82716 0.951792 0.141682
1021 1 0.764844 0.889476 0.141682
61 2 0.858318 0.858318 0.110524
445 2 0.98295 0.98295 0.110524
829 1 0.889476 0.951792 0.0793658
1341 1 0.951792 0.889476 0.0793658
1405 1 0.951792 0.951792 0.0170497
1533 1 0.889476 0.889476 0.0170497
449 2 0.0482078 0.0482078 0.17284
514 1 0.0170497 0.0170497 0.266314
897 1 0.0793658 0.141682 0.203998
1026 1 0.0793658 0.0793658 0.266314
1153 1 0.141682 0.0793658 0.203998
1474 1 0.141682 0.141682 0.266314
257 2 0.235156 0.110524 0.235156
530 1 0.266314 0.0170497 0.266314
705 1 0.203998 0.0170497 0.203998
465 2 0.297472 0.0482078 0.17284
913 1 0.328631 0.141682 0.203998
1042 1 0.328631 0.0793658 0.266314
1169 1 0.390947 0.0793658 0.203998
1490 1 0.390947 0.141682 0.266314
273 2 0.484421 0.110524 0.235156
481 2 0.546737 0.0482078 0.17284
546 1 0.515579 0.0170497 0.266314
721 1 0.453263 0.0170497 0.203998
737 1 0.702528 0.0170497 0.203998
929 1 0.577895 0.141682 0.203998
1058 1 0.577895 0.0793658 0.266314
1185 1 0.640211 0.0793658 0.203998
1506 1 0.640211 0.141682 0.266314
289 2 0.733686 0.110524 0.235156
497 2 0.796002 0.0482078 0.17284
562 1 0.764844 0.0170497 0.266314
945 1 0.82716 0.141682 0.203998
1074 1 0.82716 0.0793658 0.266314
305 2 0.98295 0.110524 0.235156
753 1 0.951792 0.0170497 0.203998
1201 1 0.889476 0.0793658 0.203998
1522 1 0.889476 0.141682 0.266314
129 2 0.110524 0.235156 0.235156
518 1 0.0170497 0.266314 0.266314
1217 1 0.0170497 0.203998 0.203998
65 2 0.17284 0.17284 0.17284
534 1 0.266314 0.266314 0.266314
709 1 0.203998 0.266314 0.203998
1233 1 0.266314 0.203998 0.203998
1346 1 0.203998 0.203998 0.266314
81 2 0.422105 0.17284 0.17284
145 2 0.359789 0.235156 0.235156
550 1 0.515579 0.266314 0.266314
725 1 0.453263 0.266314 0.203998
1249 1 0.515579 0.203998 0.203998
1362 1 0.453263 0.203998 0.266314
97 2 0.67137 0.17284 0.17284
161 2 0.609053 0.235156 0.235156
741 1 0.702528 0.266314 0.203998
1378 1 0.702528 0.203998 0.266314
566 1 0.764844 0.266314 0.266314
1265 1 0.764844 0.203998 0.203998
113 2 0.920634 0.17284 0.17284
177 2 0.858318 0.235156 0.235156
757 1 0.951792 0.266314 0.203998
1394 1 0.951792 0.203998 0.266314
453 2 0.0482078 0.297472 0.17284
901 1 0.0793658 0.390947 0.203998
1030 1 0.0793658 0.328631 0.266314
1157 1 0.141682 0.328631 0.203998
1478 1 0.141682 0.390947 0.266314
69 2 0.17284 0.422105 0.17284
261 2 0.235156 0.359789 0.235156
85 2 0.422105 0.422105 0.17284
469 2 0.297472 0.297472 0.17284
917 1 0.328631 0.390947 0.203998
1046 1 0.328631 0.328631 0.266314
1173 1 0.390947 0.328631 0.203998
1494 1 0.390947 0.390947 0.266314
277 2 0.484421 0.359789 0.235156
485 2 0.546737 0.297472 0.17284
101 2 0.67137 0.422105 0.17284
933 1 0.577895 0.390947 0.203998
1062 1 0.577895 0.328631 0.266314
1189 1 0.640211 0.328631 0.203998
1510 1 0.640211 0.390947 0.266314
293 2 0.733686 0.359789 0.235156
501 2 0.796002 0.297472 0.17284
949 1 0.82716 0.390947 0.203998
1078 1 0.82716 0.328631 0.266314
117 2 0.920634 0.422105 0.17284
309 2 0.98295 0.359789 0.235156
1205 1 0.889476 0.328631 0.203998
1526 1 0.889476 0.390947 0.266314
133 2 0.110524 0.484421 0.235156
457 2 0.0482078 0.546737 0.17284
522 1 0.0170497 0.515579 0.266314
1221 1 0.0170497 0.453263 0.203998
538 1 0.266314 0.515579 0.266314
713 1 0.203998 0.515579 0.203998
1237 1 0.266314 0.453263 0.203998
1350 1 0.203998 0.453263 0.266314
149 2 0.359789 0.484421 0.235156
473 2 0.297472 0.546737 0.17284
489 2 0.546737 0.546737 0.17284
554 1 0.515579 0.515579 0.266314
729 1 0.453263 0.515579 0.203998
1253 1 0.515579 0.453263 0.203998
1366 1 0.453263 0.453263 0.266314
165 2 0.609053 0.484421 0.235156
745 1 0.702528 0.515579 0.203998
1382 1 0.702528 0.453263 0.266314
505 2 0.796002 0.546737 0.17284
570 1 0.764844 0.515579 0.266314
1269 1 0.764844 0.453263 0.203998
181 2 0.858318 0.484421 0.235156
761 1 0.951792 0.515579 0.203998
1398 1 0.951792 0.453263 0.266314
905 1 0.0793658 0.640211 0.203998
1034 1 0.0793658 0.577895 0.266314
1161 1 0.141682 0.577895 0.203998
1225 1 0.0170497 0.702528 0.203998
1482 1 0.141682 0.640211 0.266314
73 2 0.17284 0.67137 0.17284
265 2 0.235156 0.609053 0.235156
1241 1 0.266314 0.702528 0.203998
1354 1 0.203998 0.702528 0.266314
89 2 0.422105 0.67137 0.17284
921 1 0.328631 0.640211 0.203998
1050 1 0.328631 0.577895 0.266314
1177 1 0.390947 0.577895 0.203998
1498 1 0.390947 0.640211 0.266314
281 2 0.484421 0.609053 0.235156
1257 1 0.515579 0.702528 0.203998
1370 1 0.453263 0.702528 0.266314
105 2 0.67137 0.67137 0.17284
937 1 0.577895 0.640211 0.203998
1066 1 0.577895 0.577895 0.266314
1193 1 0.640211 0.577895 0.203998
1386 1 0.702528 0.702528 0.266314
1514 1 0.640211 0.640211 0.266314
297 2 0.733686 0.609053 0.235156
953 1 0.82716 0.640211 0.203998
1082 1 0.82716 0.577895 0.266314
1273 1 0.764844 0.702528 0.203998
121 2 0.920634 0.67137 0.17284
313 2 0.98295 0.609053 0.235156
1209 1 0.889476 0.577895 0.203998
1402 1 0.951792 0.702528 0.266314
1530 1 0.889476 0.640211 0.266314
137 2 0.110524 0.733686 0.235156
461 2 0.0482078 0.796002 0.17284
526 1 0.0170497 0.764844 0.266314
1038 1 0.0793658 0.82716 0.266314
1165 1 0.141682 0.82716 0.203998
542 1 0.266314 0.764844 0.266314
717 1 0.203998 0.764844 0.203998
153 2 0.359789 0.733686 0.235156
477 2 0.297472 0.796002 0.17284
1054 1 0.328631 0.82716 0.266314
1181 1 0.390947 0.82716 0.203998
493 2 0.546737 0.796002 0.17284
558 1 0.515579 0.764844 0.266314
733 1 0.453263 0.764844 0.203998
169 2 0.609053 0.733686 0.235156
749 1 0.702528 0.764844 0.203998
1070 1 0.577895 0.82716 0.266314
1197 1 0.640211 0.82716 0.203998
509 2 0.796002 0.796002 0.17284
574 1 0.764844 0.764844 0.266314
1086 1 0.82716 0.82716 0.266314
185 2 0.858318 0.733686 0.235156
765 1 0.951792 0.764844 0.203998
1213 1 0.889476 0.82716 0.203998
141 2 0.110524 0.98295 0.235156
909 1 0.0793658 0.889476 0.203998
1229 1 0.0170497 0.951792 0.203998
1486 1 0.141682 0.889476 0.266314
77 2 0.17284 0.920634 0.17284
269 2 0.235156 0.858318 0.235156
1245 1 0.266314 0.951792 0.203998
1358 1 0.203998 0.951792 0.266314
93 2 0.422105 0.920634 0.17284
157 2 0.359789 0.98295 0.235156
925 1 0.328631 0.889476 0.203998
1502 1 0.390947 0.889476 0.266314
285 2 0.484421 0.858318 0.235156
1261 1 0.515579 0.951792 0.203998
1374 1 0.453263 0.951792 0.266314
109 2 0.67137 0.920634 0.17284
173 2 0.609053 0.98295 0.235156
941 1 0.577895 0.889476 0.203998
1390 1 0.702528 0.951792 0.266314
1518 1 0.640211 0.889476 0.266314
301 2 0.733686 0.858318 0.235156
957 1 0.82716 0.889476 0.203998
1277 1 0.764844 0.951792 0.203998
125 2 0.920634 0.920634 0.17284
189 2 0.858318 0.98295 0.235156
317 2 0.98295 0.858318 0.235156
1406 1 0.951792 0.951792 0.266314
1534 1 0.889476 0.889476 0.266314
2 2 0.110524 0.110524 0.359789
450 2 0.0482078 0.0482078 0.422105
578 1 0.0170497 0.0793658 0.328631
962 1 0.0170497 0.141682 0.390947
1090 1 0.0793658 0.0170497 0.328631
1410 1 0.141682 0.0170497 0.390947
322 2 0.17284 0.0482078 0.297472
594 1 0.266314 0.0793658 0.328631
642 1 0.203998 0.0793658 0.390947
978 1 0.266314 0.141682 0.390947
1282 1 0.203998 0.141682 0.328631
18 2 0.359789 0.110524 0.359789
338 2 0.422105 0.0482078 0.297472
466 2 0.297472 0.0482078 0.422105
1106 1 0.328631 0.0170497 0.328631
1426 1 0.390947 0.0170497 0.390947
482 2 0.546737 0.0482078 0.422105
610 1 0.515579 0.0793658 0.328631
658 1 0.453263 0.0793658 0.390947
994 1 0.515579 0.141682 0.390947
1298 1 0.453263 0.141682 0.328631
34 2 0.609053 0.110524 0.359789
354 2 0.67137 0.0482078 0.297472
674 1 0.702528 0.0793658 0.390947
1122 1 0.577895 0.0170497 0.328631
1314 1 0.702528 0.141682 0.328631
1442 1 0.640211 0.0170497 0.390947
498 2 0.796002 0.0482078 0.422105
626 1 0.764844 0.0793658 0.328631
1010 1 0.764844 0.141682 0.390947
1138 1 0.82716 0.0170497 0.328631
50 2 0.858318 0.110524 0.359789
370 2 0.920634 0.0482078 0.297472
690 1 0.951792 0.0793658 0.390947
1330 1 0.951792 0.141682 0.328631
1458 1 0.889476 0.0170497 0.390947
194 2 0.0482078 0.17284 0.297472
770 1 0.141682 0.203998 0.328631
834 1 0.0793658 0.203998 0.390947
1094 1 0.0793658 0.266314 0.328631
1414 1 0.141682 0.266314 0.390947
66 2 0.17284 0.17284 0.422105
386 2 0.235156 0.235156 0.359789
82 2 0.422105 0.17284 0.422105
210 2 0.297472 0.17284 0.297472
786 1 0.390947 0.203998 0.328631
850 1 0.328631 0.203998 0.390947
1110 1 0.328631 0.266314 0.328631
1430 1 0.390947 0.266314 0.390947
226 2 0.546737 0.17284 0.297472
402 2 0.484421 0.235156 0.359789
98 2 0.67137 0.17284 0.422105
802 1 0.640211 0.203998 0.328631
866 1 0.577895 0.203998 0.390947
1126 1 0.577895 0.266314 0.328631
1446 1 0.640211 0.266314 0.390947
242 2 0.796002 0.17284 0.297472
418 2 0.733686 0.235156 0.359789
882 1 0.82716 0.203998 0.390947
1142 1 0.82716 0.266314 0.328631
114 2 0.920634 0.17284 0.422105
434 2 0.98295 0.235156 0.359789
818 1 0.889476 0.203998 0.328631
1462 1 0.889476 0.266314 0.390947
6 2 0.110524 0.359789 0.359789
198 2 0.0482078 0.422105 0.297472
454 2 0.0482078 0.297472 0.422105
582 1 0.0170497 0.328631 0.328631
966 1 0.0170497 0.390947 0.390947
70 2 0.17284 0.422105 0.422105
326 2 0.17284 0.297472 0.297472
598 1 0.266314 0.328631 0.328631
646 1 0.203998 0.328631 0.390947
982 1 0.266314 0.390947 0.390947
1286 1 0.203998 0.390947 0.328631
22 2 0.359789 0.359789 0.359789
86 2 0.422105 0.422105 0.422105
214 2 0.297472 0.422105 0.297472
342 2 0.422105 0.297472 0.297472
470 2 0.297472 0.297472 0.422105
230 2 0.546737 0.422105 0.297472
486 2 0.546737 0.297472 0.422105
614 1 0.515579 0.328631 0.328631
662 1 0.453263 0.328631 0.390947
998 1 0.515579 0.390947 0.390947
1302 1 0.453263 0.390947 0.328631
38 2 0.609053 0.359789 0.359789
102 2 0.67137 0.422105 0.422105
358 2 0.67137 0.297472 0.297472
678 1 0.702528 0.328631 0.390947
1318 1 0.702528 0.390947 0.328631
246 2 0.796002 0.422105 0.297472
502 2 0.796002 0.297472 0.422105
630 1 0.764844 0.328631 0.328631
1014 1 0.764844 0.390947 0.390947
54 2 0.858318 0.359789 0.359789
118 2 0.920634 0.422105 0.422105
374 2 0.920634 0.297472 0.297472
694 1 0.951792 0.328631 0.390947
1334 1 0.951792 0.390947 0.328631
458 2 0.0482078 0.546737 0.422105
774 1 0.141682 0.453263 0.328631
838 1 0.0793658 0.453263 0.390947
1098 1 0.0793658 0.515579 0.328631
1418 1 0.141682 0.515579 0.390947
330 2 0.17284 0.546737 0.297472
390 2 0.235156 0.484421 0.359789
346 2 0.422105 0.546737 0.297472
474 2 0.297472 0.546737 0.422105
790 1 0.390947 0.453263 0.328631
854 1 0.328631 0.453263 0.390947
1114 1 0.328631 0.515579 0.328631
1434 1 0.390947 0.515579 0.390947
406 2 0.484421 0.484421 0.359789
490 2 0.546737 0.546737 0.422105
362 2 0.67137 0.546737 0.297472
806 1 0.640211 0.453263 0.328631
870 1 0.577895 0.453263 0.390947
1130 1 0.577895 0.515579 0.328631
1450 1 0.640211 0.515579 0.390947
422 2 0.733686 0.484421 0.359789
506 2 0.796002 0.546737 0.422105
886 1 0.82716 0.453263 0.390947
1146 1 0.82716 0.515579 0.328631
378 2 0.920634 0.546737 0.297472
438 2 0.98295 0.484421 0.359789
822 1 0.889476 0.453263 0.328631
1466 1 0.889476 0.515579 0.390947
10 2 0.110524 0.609053 0.359789
202 2 0.0482078 0.67137 0.297472
586 1 0.0170497 0.577895 0.328631
778 1 0.141682 0.702528 0.328631
842 1 0.0793658 0.702528 0.390947
970 1 0.0170497 0.640211 0.390947
74 2 0.17284 0.67137 0.422105
602 1 0.266314 0.577895 0.328631
650 1 0.203998 0.577895 0.390947
986 1 0.266314 0.640211 0.390947
1290 1 0.203998 0.640211 0.328631
26 2 0.359789 0.609053 0.359789
90 2 0.422105 0.67137 0.422105
218 2 0.297472 0.67137 0.297472
794 1 0.390947 0.702528 0.328631
858 1 0.328631 0.702528 0.390947
234 2 0.546737 0.67137 0.297472
618 1 0.515579 0.577895 0.328631
666 1 0.453263 0.577895 0.390947
1002 1 0.515579 0.640211 0.390947
1306 1 0.453263 0.640211 0.328631
42 2 0.609053 0.609053 0.359789
106 2 0.67137 0.67137 0.422105
682 1 0.702528 0.577895 0.390947
810 1 0.640211 0.702528 0.328631
874 1 0.577895 0.702528 0.390947
1322 1 0.702528 0.640211 0.328631
250 2 0.796002 0.67137 0.297472
634 1 0.764844 0.577895 0.328631
890 1 0.82716 0.702528 0.390947
1018 1 0.764844 0.640211 0.390947
58 2 0.858318 0.609053 0.359789
122 2 0.920634 0.67137 0.422105
698 1 0.951792 0.577895 0.390947
826 1 0.889476 0.702528 0.328631
1338 1 0.951792 0.640211 0.328631
462 2 0.0482078 0.796002 0.422105
590 1 0.0170497 0.82716 0.328631
1102 1 0.0793658 0.764844 0.328631
1422 1 0.141682 0.764844 0.390947
334 2 0.17284 0.796002 0.297472
394 2 0.235156 0.733686 0.359789
606 1 0.266314 0.82716 0.328631
654 1 0.203998 0.82716 0.390947
350 2 0.422105 0.796002 0.297472
478 2 0.297472 0.796002 0.422105
1118 1 0.328631 0.764844 0.328631
1438 1 0.390947 0.764844 0.390947
410 2 0.484421 0.733686 0.359789
494 2 0.546737 0.796002 0.422105
622 1 0.515579 0.82716 0.328631
670 1 0.453263 0.82716 0.390947
366 2 0.67137 0.796002 0.297472
686 1 0.702528 0.82716 0.390947
1134 1 0.577895 0.764844 0.328631
1454 1 0.640211 0.764844 0.390947
426 2 0.733686 0.733686 0.359789
510 2 0.796002 0.796002 0.422105
638 1 0.764844 0.82716 0.328631
1150 1 0.82716 0.764844 0.328631
382 2 0.920634 0.796002 0.297472
442 2 0.98295 0.733686 0.359789
702 1 0.951792 0.82716 0.390947
1470 1 0.889476 0.764844 0.390947
14 2 0.110524 0.858318 0.359789
206 2 0.0482078 0.920634 0.297472
782 1 0.141682 0.951792 0.328631
846 1 0.0793658 0.951792 0.390947
974 1 0.0170497 0.889476 0.390947
78 2 0.17284 0.920634 0.422105
398 2 0.235156 0.98295 0.359789
990 1 0.266314 0.889476 0.390947
1294 1 0.203998 0.889476 0.328631
30 2 0.359789 0.858318 0.359789
94 2 0.422105 0.920634 0.422105
222 2 0.297472 0.920634 0.297472
798 1 0.390947 0.951792 0.328631
862 1 0.328631 0.951792 0.390947
238 2 0.546737 0.920634 0.297472
414 2 0.484421 0.98295 0.359789
1006 1 0.515579 0.889476 0.390947
1310 1 0.453263 0.889476 0.328631
46 2 0.609053 0.858318 0.359789
110 2 0.67137 0.920634 0.422105
814 1 0.640211 0.951792 0.328631
878 1 0.577895 0.951792 0.390947
1326 1 0.702528 0.889476 0.328631
254 2 0.796002 0.920634 0.297472
430 2 0.733686 0.98295 0.359789
894 1 0.82716 0.951792 0.390947
1022 1 0.764844 0.889476 0.390947
62 2 0.858318 0.858318 0.359789
126 2 0.920634 0.920634 0.422105
446 2 0.98295 0.98295 0.359789
830 1 0.889476 0.951792 0.328631
1342 1 0.951792 0.889476 0.328631
515 1 0.0170497 0.0170497 0.515579
898 1 0.0793658 0.141682 0.453263
1027 1 0.0793658 0.0793658 0.515579
1154 1 0.141682 0.0793658 0.453263
1475 1 0.141682 0.141682 0.515579
258 2 0.235156 0.110524 0.484421
323 2 0.17284 0.0482078 0.546737
531 1 0.266314 0.0170497 0.515579
706 1 0.203998 0.0170497 0.453263
339 2 0.422105 0.0482078 0.546737
914 1 0.328631 0.141682 0.453263
1043 1 0.328631 0.0793658 0.515579
1170 1 0.390947 0.0793658 0.453263
1491 1 0.390947 0.141682 0.515579
274 2 0.484421 0.110524 0.484421
547 1 0.515579 0.0170497 0.515579
722 1 0.453263 0.0170497 0.453263
355 2 0.67137 0.0482078 0.546737
738 1 0.702528 0.0170497 0.453263
930 1 0.577895 0.141682 0.453263
1059 1 0.577895 0.0793658 0.515579
1186 1 0.640211 0.0793658 0.453263
1507 1 0.640211 0.141682 0.515579
290 2 0.733686 0.110524 0.484421
563 1 0.764844 0.0170497 0.515579
946 1 0.82716 0.141682 0.453263
1075 1 0.82716 0.0793658 0.515579
306 2 0.98295 0.110524 0.484421
371 2 0.920634 0.0482078 0.546737
754 1 0.951792 0.0170497 0.453263
1202 1 0.889476 0.0793658 0.453263
1523 1 0.889476 0.141682 0.515579
130 2 0.110524 0.235156 0.484421
195 2 0.0482078 0.17284 0.546737
519 1 0.0170497 0.266314 0.515579
1218 1 0.0170497 0.203998 0.453263
535 1 0.266314 0.266314 0.515579
710 1 0.203998 0.266314 0.453263
1234 1 0.266314 0.203998 0.453263
1347 1 0.203998 0.203998 0.515579
146 2 0.359789 0.235156 0.484421
211 2 0.297472 0.17284 0.546737
227 2 0.546737 0.17284 0.546737
551 1 0.515579 0.266314 0.515579
726 1 0.453263 0.266314 0.453263
1250 1 0.515579 0.203998 0.453263
1363 1 0.453263 0.203998 0.515579
162 2 0.609053 0.235156 0.484421
742 1 0.702528 0.266314 0.453263
1379 1 0.702528 0.203998 0.515579
243 2 0.796002 0.17284 0.546737
567 1 0.764844 0.266314 0.515579
1266 1 0.764844 0.203998 0.453263
178 2 0.858318 0.235156 0.484421
758 1 0.951792 0.266314 0.453263
1395 1 0.951792 0.203998 0.515579
199 2 0.0482078 0.422105 0.546737
902 1 0.0793658 0.390947 0.453263
1031 1 0.0793658 0.328631 0.515579
1158 1 0.141682 0.328631 0.453263
1479 1 0.141682 0.390947 0.515579
262 2 0.235156 0.359789 0.484421
327 2 0.17284 0.297472 0.546737
215 2 0.297472 0.422105 0.546737
343 2 0.422105 0.297472 0.546737
918 1 0.328631 0.390947 0.453263
1047 1 0.328631 0.328631 0.515579
1174 1 0.390947 0.328631 0.453263
1495 1 0.390947 0.390947 0.515579
231 2 0.546737 0.422105 0.546737
278 2 0.484421 0.359789 0.484421
359 2 0.67137 0.297472 0.546737
934 1 0.577895 0.390947 0.453263
1063 1 0.577895 0.328631 0.515579
1190 1 0.640211 0.328631 0.453263
1511 1 0.640211 0.390947 0.515579
247 2 0.796002 0.422105 0.546737
294 2 0.733686 0.359789 0.484421
950 1 0.82716 0.390947 0.453263
1079 1 0.82716 0.328631 0.515579
310 2 0.98295 0.359789 0.484421
375 2 0.920634 0.297472 0.546737
1206 1 0.889476 0.328631 0.453263
1527 1 0.889476 0.390947 0.515579
134 2 0.110524 0.484421 0.484421
523 1 0.0170497 0.515579 0.515579
1222 1 0.0170497 0.453263 0.453263
331 2 0.17284 0.546737 0.546737
539 1 0.266314 0.515579 0.515579
714 1 0.203998 0.515579 0.453263
1238 1 0.266314 0.453263 0.453263
1351 1 0.203998 0.453263 0.515579
150 2 0.359789 0.484421 0.484421
347 2 0.422105 0.546737 0.546737
555 1 0.515579 0.515579 0.515579
730 1 0.453263 0.515579 0.453263
1254 1 0.515579 0.453263 0.453263
1367 1 0.453263 0.453263 0.515579
166 2 0.609053 0.484421 0.484421
363 2 0.67137 0.546737 0.546737
746 1 0.702528 0.515579 0.453263
1383 1 0.702528 0.453263 0.515579
571 1 0.764844 0.515579 0.515579
1270 1 0.764844 0.453263 0.453263
182 2 0.858318 0.484421 0.484421
379 2 0.920634 0.546737 0.546737
762 1 0.951792 0.515579 0.453263
1399 1 0.951792 0.453263 0.515579
203 2 0.0482078 0.67137 0.546737
906 1 0.0793658 0.640211 0.453263
1035 1 0.0793658 0.577895 0.515579
1162 1 0.141682 0.577895 0.453263
1226 1 0.0170497 0.702528 0.453263
1483 1 0.141682 0.640211 0.515579
266 2 0.235156 0.609053 0.484421
1242 1 0.266314 0.702528 0.453263
1355 1 0.203998 0.702528 0.515579
219 2 0.297472 0.67137 0.546737
922 1 0.328631 0.640211 0.453263
1051 1 0.328631 0.577895 0.515579
1178 1 0.390947 0.577895 0.453263
1499 1 0.390947 0.640211 0.515579
235 2 0.546737 0.67137 0.546737
282 2 0.484421 0.609053 0.484421
1258 1 0.515579 0.702528 0.453263
1371 1 0.453263 0.702528 0.515579
938 1 0.577895 0.640211 0.453263
1067 1 0.577895 0.577895 0.515579
1194 1 0.640211 0.577895 0.453263
1387 1 0.702528 0.702528 0.515579
1515 1 0.640211 0.640211 0.515579
251 2 0.796002 0.67137 0.546737
298 2 0.733686 0.609053 0.484421
954 1 0.82716 0.640211 0.453263
1083 1 0.82716 0.577895 0.515579
1274 1 0.764844 0.702528 0.453263
314 2 0.98295 0.609053 0.484421
1210 1 0.889476 0.577895 0.453263
1403 1 0.951792 0.702528 0.515579
1531 1 0.889476 0.640211 0.515579
138 2 0.110524 0.733686 0.484421
527 1 0.0170497 0.764844 0.515579
1039 1 0.0793658 0.82716 0.515579
1166 1 0.141682 0.82716 0.453263
335 2 0.17284 0.796002 0.546737
543 1 0.266314 0.764844 0.515579
718 1 0.203998 0.764844 0.453263
154 2 0.359789 0.733686 0.484421
351 2 0.422105 0.796002 0.546737
1055 1 0.328631 0.82716 0.515579
1182 1 0.390947 0.82716 0.453263
559 1 0.515579 0.764844 0.515579
734 1 0.453263 0.764844 0.453263
170 2 0.609053 0.733686 0.484421
367 2 0.67137 0.796002 0.546737
750 1 0.702528 0.764844 0.453263
1071 1 0.577895 0.82716 0.515579
1198 1 0.640211 0.82716 0.453263
575 1 0.764844 0.764844 0.515579
1087 1 0.82716 0.82716 0.515579
186 2 0.858318 0.733686 0.484421
383 2 0.920634 0.796002 0.546737
766 1 0.951792 0.764844 0.453263
1214 1 0.889476 0.82716 0.453263
142 2 0.110524 0.98295 0.484421
207 2 0.0482078 0.920634 0.546737
910 1 0.0793658 0.889476 0.453263
1230 1 0.0170497 0.951792 0.453263
1487 1 0.141682 0.889476 0.515579
270 2 0.235156 0.858318 0.484421
1246 1 0.266314 0.951792 0.453263
1359 1 0.203998 0.951792 0.515579
158 2 0.359789 0.98295 0.484421
223 2 0.297472 0.920634 0.546737
926 1 0.328631 0.889476 0.453263
1503 1 0.390947 0.889476 0.515579
239 2 0.546737 0.920634 0.546737
286 2 0.484421 0.858318 0.484421
1262 1 0.515579 0.951792 0.453263
1375 1 0.453263 0.951792 0.515579
174 2 0.609053 0.98295 0.484421
942 1 0.577895 0.889476 0.453263
1391 1 0.702528 0.951792 0.515579
1519 1 0.640211 0.889476 0.515579
255 2 0.796002 0.920634 0.546737
302 2 0.733686 0.858318 0.484421
958 1 0.82716 0.889476 0.453263
1278 1 0.764844 0.951792 0.453263
190 2 0.858318 0.98295 0.484421
318 2 0.98295 0.858318 0.484421
1407 1 0.951792 0.951792 0.515579
1535 1 0.889476 0.889476 0.515579
3 2 0.110524 0.110524 0.609053
451 2 0.0482078 0.0482078 0.67137
579 1 0.0170497 0.0793658 0.577895
899 1 0.0793658 0.141682 0.702528
963 1 0.0170497 0.141682 0.640211
1091 1 0.0793658 0.0170497 0.577895
1155 1 0.141682 0.0793658 0.702528
1411 1 0.141682 0.0170497 0.640211
595 1 0.266314 0.0793658 0.577895
643 1 0.203998 0.0793658 0.640211
707 1 0.203998 0.0170497 0.702528
979 1 0.266314 0.141682 0.640211
1283 1 0.203998 0.141682 0.577895
19 2 0.359789 0.110524 0.609053
467 2 0.297472 0.0482078 0.67137
915 1 0.328631 0.141682 0.702528
1107 1 0.328631 0.0170497 0.577895
1171 1 0.390947 0.0793658 0.702528
1427 1 0.390947 0.0170497 0.640211
483 2 0.546737 0.0482078 0.67137
611 1 0.515579 0.0793658 0.577895
659 1 0.453263 0.0793658 0.640211
723 1 0.453263 0.0170497 0.702528
995 1 0.515579 0.141682 0.640211
1299 1 0.453263 0.141682 0.577895