ITEM: TIMESTEP
0
ITEM: NUMBER OF ATOMS
96
ITEM: BOX BOUNDS pp pp pp
-6.6153370000000002e+00 1.7884663000000000e+01
-6.6153370000000002e+00 1.7884663000000000e+01
-5.6012500000000003e+00 1.4298750000000000e+01
ITEM: ATOMS id type xs ys zs
65 1 0.270014 0.270014 0.343907
66 1 0.270014 0.270014 0.593656
73 1 0.270014 0.270014 0.468781
74 1 0.270014 0.270014 0.71853
69 1 0.51981 0.270014 0.343907
70 1 0.51981 0.270014 0.593656
77 1 0.51981 0.270014 0.468781
78 1 0.51981 0.270014 0.71853
1 2 0.355292 0.309633 0.406344
2 2 0.355292 0.309633 0.656093
57 2 0.309633 0.355292 0.28147
58 2 0.309633 0.355292 0.531219
81 1 0.394912 0.394912 0.468781
82 1 0.394912 0.394912 0.71853
89 1 0.394912 0.394912 0.343907
90 1 0.394912 0.394912 0.593656
9 2 0.434531 0.309633 0.28147
10 2 0.434531 0.309633 0.531219
49 2 0.48019 0.355292 0.406344
50 2 0.48019 0.355292 0.656093
61 2 0.559429 0.355292 0.28147
62 2 0.559429 0.355292 0.531219
5 2 0.605088 0.309633 0.406344
6 2 0.605088 0.309633 0.656093
13 2 0.684327 0.309633 0.28147
14 2 0.684327 0.309633 0.531219
85 1 0.644708 0.394912 0.468781
86 1 0.644708 0.394912 0.71853
93 1 0.644708 0.394912 0.343907
94 1 0.644708 0.394912 0.593656
53 2 0.729986 0.355292 0.406344
54 2 0.729986 0.355292 0.656093
67 1 0.270014 0.51981 0.343907
68 1 0.270014 0.51981 0.593656
75 1 0.270014 0.51981 0.468781
76 1 0.270014 0.51981 0.71853
3 2 0.355292 0.559429 0.406344
4 2 0.355292 0.559429 0.656093
17 2 0.355292 0.48019 0.28147
18 2 0.355292 0.48019 0.531219
41 2 0.309633 0.434531 0.406344
42 2 0.309633 0.434531 0.656093
11 2 0.434531 0.559429 0.28147
12 2 0.434531 0.559429 0.531219
25 2 0.434531 0.48019 0.406344
26 2 0.434531 0.48019 0.656093
33 2 0.48019 0.434531 0.28147
34 2 0.48019 0.434531 0.531219
45 2 0.559429 0.434531 0.406344
46 2 0.559429 0.434531 0.656093
71 1 0.51981 0.51981 0.343907
72 1 0.51981 0.51981 0.593656
79 1 0.51981 0.51981 0.468781
80 1 0.51981 0.51981 0.71853
7 2 0.605088 0.559429 0.406344
8 2 0.605088 0.559429 0.656093
15 2 0.684327 0.559429 0.28147
16 2 0.684327 0.559429 0.531219
21 2 0.605088 0.48019 0.28147
22 2 0.605088 0.48019 0.531219
29 2 0.684327 0.48019 0.406344
30 2 0.684327 0.48019 0.656093
37 2 0.729986 0.434531 0.28147
38 2 0.729986 0.434531 0.531219
43 2 0.309633 0.684327 0.406344
44 2 0.309633 0.684327 0.656093
59 2 0.309633 0.605088 0.28147
60 2 0.309633 0.605088 0.531219
83 1 0.394912 0.644708 0.468781
84 1 0.394912 0.644708 0.71853
91 1 0.394912 0.644708 0.343907
92 1 0.394912 0.644708 0.593656
35 2 0.48019 0.684327 0.28147
36 2 0.48019 0.684327 0.531219
47 2 0.559429 0.684327 0.406344
48 2 0.559429 0.684327 0.656093
51 2 0.48019 0.605088 0.406344
52 2 0.48019 0.605088 0.656093
63 2 0.559429 0.605088 0.28147
64 2 0.559429 0.605088 0.531219
87 1 0.644708 0.644708 0.468781
88 1 0.644708 0.644708 0.71853
95 1 0.644708 0.644708 0.343907
96 1 0.644708 0.644708 0.593656
39 2 0.729986 0.684327 0.28147
40 2 0.729986 0.684327 0.531219
55 2 0.729986 0.605088 0.406344
56 2 0.729986 0.605088 0.656093
19 2 0.355292 0.729986 0.28147
20 2 0.355292 0.729986 0.531219
27 2 0.434531 0.729986 0.406344
28 2 0.434531 0.729986 0.656093
23 2 0.605088 0.729986 0.28147
24 2 0.605088 0.729986 0.531219
31 2 0.684327 0.729986 0.406344
32 2 0.684327 0.729986 0.656093
ITEM: TIMESTEP
100
ITEM: NUMBER OF ATOMS
96
ITEM: BOX BOUNDS pp pp pp
-6.6153370000000002e+00 1.7884663000000000e+01
-6.6153370000000002e+00 1.7884663000000000e+01
-5.6012500000000003e+00 1.4298750000000000e+01
ITEM: ATOMS id type xs ys zs
65 1 0.251254 0.336107 0.401315
66 1 0.341328 0.244321 0.542385
73 1 0.263412 0.264652 0.479391
74 1 0.262399 0.274245 0.597445
69 1 0.514936 0.253881 0.342352
70 1 0.523806 0.25509 0.604252
77 1 0.521328 0.250851 0.472083
78 1 0.526999 0.262451 0.722985
1 2 0.352011 0.293224 0.416121
2 2 0.34933 0.306875 0.653974
57 2 0.306958 0.349904 0.288636
58 2 0.289678 0.358231 0.531772
81 1 0.385939 0.387104 0.472655
82 1 0.391244 0.385612 0.732737
89 1 0.388945 0.390718 0.349829
90 1 0.391406 0.389966 0.59663
9 2 0.427218 0.304671 0.274764
10 2 0.435016 0.294143 0.539985
49 2 0.479815 0.338611 0.405781
50 2 0.479967 0.344142 0.670205
61 2 0.55646 0.339845 0.273044
62 2 0.561782 0.33878 0.535787
5 2 0.610446 0.292128 0.403101
6 2 0.607432 0.311337 0.67421
13 2 0.681487 0.308055 0.272725
14 2 0.688806 0.299429 0.537637
85 1 0.652389 0.389981 0.469237
86 1 0.652093 0.396243 0.737909
93 1 0.646463 0.390538 0.344609
94 1 0.649852 0.39341 0.596987
53 2 0.739083 0.346999 0.401028
54 2 0.729508 0.353143 0.668583
67 1 0.254259 0.523677 0.337965
68 1 0.253559 0.515996 0.599407
75 1 0.250102 0.522038 0.468939
76 1 0.257788 0.511528 0.71782
3 2 0.336252 0.561686 0.404186
4 2 0.3395 0.559618 0.666969
17 2 0.341908 0.477971 0.270484
18 2 0.341558 0.482763 0.535725
41 2 0.292729 0.435286 0.402388
42 2 0.309029 0.431913 0.671268
11 2 0.435068 0.563416 0.264309
12 2 0.432624 0.562042 0.534495
25 2 0.430228 0.481562 0.401459
26 2 0.435132 0.47656 0.673929
33 2 0.472863 0.431881 0.264768
34 2 0.480998 0.431394 0.537394
45 2 0.559284 0.430069 0.402611
46 2 0.566139 0.438123 0.672559
71 1 0.521107 0.519211 0.336134
72 1 0.521581 0.522808 0.603021
79 1 0.522295 0.52177 0.468058
80 1 0.521454 0.5232 0.736957
7 2 0.615857 0.555624 0.400789
8 2 0.60674 0.56815 0.671051
15 2 0.694754 0.557948 0.269901
16 2 0.712552 0.559731 0.534066
21 2 0.603827 0.471619 0.261421
22 2 0.614363 0.484047 0.535378
29 2 0.71362 0.477807 0.403513
30 2 0.697294 0.478337 0.664914
37 2 0.726625 0.423711 0.264882
38 2 0.749666 0.41889 0.537557
43 2 0.300358 0.689786 0.400682
44 2 0.307209 0.685468 0.664447
59 2 0.307813 0.605789 0.267209
60 2 0.291167 0.61262 0.535947
83 1 0.389529 0.651679 0.468382
84 1 0.385515 0.644903 0.734975
91 1 0.392704 0.647105 0.343195
92 1 0.389112 0.647096 0.597181
35 2 0.478792 0.693958 0.26909
36 2 0.479308 0.70698 0.533509
47 2 0.559715 0.715386 0.401076
48 2 0.563898 0.697608 0.662486
51 2 0.485776 0.614012 0.39931
52 2 0.4757 0.607737 0.67198
63 2 0.565809 0.602159 0.26093
64 2 0.560167 0.614556 0.532166
87 1 0.65196 0.651587 0.466314
88 1 0.64699 0.656255 0.735699
95 1 0.645818 0.64717 0.342591
96 1 0.65008 0.650098 0.592544
39 2 0.727051 0.681951 0.266031
40 2 0.742967 0.690382 0.533255
55 2 0.746241 0.618117 0.398059
56 2 0.730581 0.615436 0.671428
19 2 0.354024 0.725151 0.268288
20 2 0.349747 0.740746 0.535774
27 2 0.420755 0.747055 0.3986
28 2 0.424738 0.729603 0.671598
23 2 0.611165 0.72612 0.261314
24 2 0.620716 0.748627 0.533176
31 2 0.690684 0.740241 0.396165
32 2 0.687727 0.732916 0.663132
ITEM: TIMESTEP
128
ITEM: NUMBER OF ATOMS
96
ITEM: BOX BOUNDS pp pp pp
-6.6153370000000002e+00 1.7884663000000000e+01
-6.6153370000000002e+00 1.7884663000000000e+01
-5.6012500000000003e+00 1.4298750000000000e+01
ITEM: ATOMS id type xs ys zs
65 1 0.251254 0.336107 0.401315
66 1 0.341328 0.244321 0.542386
73 1 0.263412 0.264652 0.479391
74 1 0.262399 0.274245 0.597445
69 1 0.514936 0.253881 0.342352
70 1 0.523806 0.25509 0.604252
77 1 0.521329 0.250851 0.472083
78 1 0.526999 0.262451 0.722985
1 2 0.352011 0.293224 0.416121
2 2 0.34933 0.306875 0.653974
57 2 0.306958 0.349904 0.288636
58 2 0.289678 0.358231 0.531773
81 1 0.385939 0.387104 0.472655
82 1 0.391244 0.385612 0.732737
89 1 0.388944 0.390718 0.349829
90 1 0.391406 0.389966 0.59663
9 2 0.427218 0.304671 0.274764
10 2 0.435016 0.294143 0.539985
49 2 0.479815 0.338611 0.405781
50 2 0.479967 0.344142 0.670205
61 2 0.55646 0.339845 0.273044
62 2 0.561782 0.33878 0.535787
5 2 0.610446 0.292128 0.403101
6 2 0.607432 0.311337 0.67421
13 2 0.681487 0.308056 0.272725
14 2 0.688807 0.299429 0.537637
85 1 0.652389 0.389981 0.469237
86 1 0.652093 0.396243 0.737909
93 1 0.646463 0.390539 0.344609
94 1 0.649852 0.393409 0.596988
53 2 0.739083 0.346999 0.401028
54 2 0.729508 0.353143 0.668583
67 1 0.254259 0.523677 0.337965
68 1 0.253559 0.515996 0.599407
75 1 0.250102 0.522038 0.46894
76 1 0.257788 0.511529 0.71782
3 2 0.336252 0.561686 0.404186
4 2 0.3395 0.559618 0.666969
17 2 0.341908 0.477971 0.270484
18 2 0.341558 0.482764 0.535725
41 2 0.292729 0.435286 0.402388
42 2 0.309029 0.431913 0.671268
11 2 0.435068 0.563416 0.264309
12 2 0.432624 0.562042 0.534494
25 2 0.430228 0.481562 0.401459
26 2 0.435132 0.47656 0.673929
33 2 0.472862 0.431881 0.264768
34 2 0.480998 0.431394 0.537394
45 2 0.559284 0.430068 0.40261
46 2 0.566139 0.438123 0.672559
71 1 0.521107 0.51921 0.336134
72 1 0.521581 0.522808 0.603021
79 1 0.522295 0.52177 0.468057
80 1 0.521454 0.5232 0.736957
7 2 0.615857 0.555624 0.400788
8 2 0.606741 0.56815 0.67105
15 2 0.694754 0.557947 0.269902
16 2 0.712549 0.559732 0.534066
21 2 0.603827 0.471619 0.26142
22 2 0.614362 0.484046 0.535378
29 2 0.713622 0.477808 0.403514
30 2 0.697294 0.478337 0.664914
37 2 0.726625 0.423712 0.264882
38 2 0.749666 0.41889 0.537557
43 2 0.300358 0.689786 0.400682
44 2 0.307209 0.685468 0.664447
59 2 0.307813 0.605789 0.267209
60 2 0.291167 0.61262 0.535947
83 1 0.389529 0.651679 0.468382
84 1 0.385515 0.644903 0.734975
91 1 0.392704 0.647105 0.343195
92 1 0.389113 0.647096 0.597181
35 2 0.478792 0.693958 0.26909
36 2 0.479308 0.70698 0.533509
47 2 0.559715 0.715387 0.401076
48 2 0.563898 0.697608 0.662486
51 2 0.485777 0.614012 0.39931
52 2 0.475701 0.607737 0.67198
63 2 0.565809 0.602158 0.260929
64 2 0.560167 0.614555 0.532166
87 1 0.65196 0.651588 0.466314
88 1 0.64699 0.656255 0.735698
95 1 0.645818 0.64717 0.342591
96 1 0.650079 0.650099 0.592545
39 2 0.727051 0.681951 0.266032
40 2 0.742967 0.690382 0.533255
55 2 0.746241 0.618117 0.398059
56 2 0.730581 0.615436 0.671427
19 2 0.354024 0.725151 0.268288
20 2 0.349747 0.740746 0.535774
27 2 0.420756 0.747055 0.3986
28 2 0.424738 0.729603 0.671598
23 2 0.611165 0.726119 0.261314
24 2 0.620716 0.748627 0.533176
31 2 0.690684 0.740241 0.396166
32 2 0.687727 0.732917 0.663132
