ITEM: TIMESTEP
0
ITEM: NUMBER OF ATOMS
216
ITEM: BOX BOUNDS pp pp pp
-2.0550000000000002e+00 1.4145001000000001e+01
-2.0550000000000002e+00 1.4145001000000001e+01
-2.0550000000000002e+00 1.4145001000000001e+01
ITEM: ATOMS id type xs ys zs
55 2 0.209939 0.168396 0.189043
64 2 0.458705 0.168396 0.189043
109 2 0.334073 0.168396 0.189043
73 2 0.70747 0.168396 0.189043
118 2 0.582839 0.168396 0.189043
127 2 0.831604 0.168396 0.189043
58 2 0.209939 0.417161 0.189043
163 1 0.209774 0.292695 0.189043
1 2 0.334073 0.29253 0.189043
67 2 0.458705 0.417161 0.189043
112 2 0.334073 0.417161 0.189043
172 1 0.458539 0.292695 0.189043
10 2 0.582839 0.29253 0.189043
76 2 0.70747 0.417161 0.189043
121 2 0.582839 0.417161 0.189043
181 1 0.707304 0.292695 0.189043
19 2 0.831604 0.29253 0.189043
130 2 0.831604 0.417161 0.189043
61 2 0.209939 0.665927 0.189043
166 1 0.209774 0.541461 0.189043
4 2 0.334073 0.541295 0.189043
70 2 0.458705 0.665927 0.189043
115 2 0.334073 0.665927 0.189043
175 1 0.458539 0.541461 0.189043
13 2 0.582839 0.541295 0.189043
79 2 0.70747 0.665927 0.189043
124 2 0.582839 0.665927 0.189043
184 1 0.707304 0.541461 0.189043
22 2 0.831604 0.541295 0.189043
133 2 0.831604 0.665927 0.189043
169 1 0.209774 0.790226 0.189043
7 2 0.334073 0.79006 0.189043
178 1 0.458539 0.790226 0.189043
16 2 0.582839 0.79006 0.189043
187 1 0.707304 0.790226 0.189043
25 2 0.831604 0.79006 0.189043
56 2 0.209939 0.168396 0.437809
82 2 0.168396 0.209939 0.313426
65 2 0.458705 0.168396 0.437809
91 2 0.417161 0.209939 0.313426
110 2 0.334073 0.168396 0.437809
190 1 0.292695 0.209774 0.313426
74 2 0.70747 0.168396 0.437809
100 2 0.665927 0.209939 0.313426
119 2 0.582839 0.168396 0.437809
199 1 0.541461 0.209774 0.313426
128 2 0.831604 0.168396 0.437809
208 1 0.790226 0.209774 0.313426
28 2 0.168396 0.334073 0.313426
59 2 0.209939 0.417161 0.437809
85 2 0.168396 0.458705 0.313426
164 1 0.209774 0.292695 0.437809
2 2 0.334073 0.29253 0.437809
37 2 0.417161 0.334073 0.313426
68 2 0.458705 0.417161 0.437809
94 2 0.417161 0.458705 0.313426
113 2 0.334073 0.417161 0.437809
136 2 0.29253 0.334073 0.313426
173 1 0.458539 0.292695 0.437809
193 1 0.292695 0.458539 0.313426
11 2 0.582839 0.29253 0.437809
46 2 0.665927 0.334073 0.313426
77 2 0.70747 0.417161 0.437809
103 2 0.665927 0.458705 0.313426
122 2 0.582839 0.417161 0.437809
145 2 0.541295 0.334073 0.313426
182 1 0.707304 0.292695 0.437809
202 1 0.541461 0.458539 0.313426
20 2 0.831604 0.29253 0.437809
131 2 0.831604 0.417161 0.437809
154 2 0.79006 0.334073 0.313426
211 1 0.790226 0.458539 0.313426
31 2 0.168396 0.582839 0.313426
62 2 0.209939 0.665927 0.437809
88 2 0.168396 0.70747 0.313426
167 1 0.209774 0.541461 0.437809
5 2 0.334073 0.541295 0.437809
40 2 0.417161 0.582839 0.313426
71 2 0.458705 0.665927 0.437809
97 2 0.417161 0.70747 0.313426
116 2 0.334073 0.665927 0.437809
139 2 0.29253 0.582839 0.313426
176 1 0.458539 0.541461 0.437809
196 1 0.292695 0.707304 0.313426
14 2 0.582839 0.541295 0.437809
49 2 0.665927 0.582839 0.313426
80 2 0.70747 0.665927 0.437809
106 2 0.665927 0.70747 0.313426
125 2 0.582839 0.665927 0.437809
148 2 0.541295 0.582839 0.313426
185 1 0.707304 0.541461 0.437809
205 1 0.541461 0.707304 0.313426
23 2 0.831604 0.541295 0.437809
134 2 0.831604 0.665927 0.437809
157 2 0.79006 0.582839 0.313426
214 1 0.790226 0.707304 0.313426
34 2 0.168396 0.831604 0.313426
170 1 0.209774 0.790226 0.437809
8 2 0.334073 0.79006 0.437809
43 2 0.417161 0.831604 0.313426
142 2 0.29253 0.831604 0.313426
179 1 0.458539 0.790226 0.437809
17 2 0.582839 0.79006 0.437809
52 2 0.665927 0.831604 0.313426
151 2 0.541295 0.831604 0.313426
188 1 0.707304 0.790226 0.437809
26 2 0.831604 0.79006 0.437809
160 2 0.79006 0.831604 0.313426
57 2 0.209939 0.168396 0.686574
83 2 0.168396 0.209939 0.562191
66 2 0.458705 0.168396 0.686574
92 2 0.417161 0.209939 0.562191
111 2 0.334073 0.168396 0.686574
191 1 0.292695 0.209774 0.562191
75 2 0.70747 0.168396 0.686574
101 2 0.665927 0.209939 0.562191
120 2 0.582839 0.168396 0.686574
200 1 0.541461 0.209774 0.562191
129 2 0.831604 0.168396 0.686574
209 1 0.790226 0.209774 0.562191
29 2 0.168396 0.334073 0.562191
60 2 0.209939 0.417161 0.686574
86 2 0.168396 0.458705 0.562191
165 1 0.209774 0.292695 0.686574
3 2 0.334073 0.29253 0.686574
38 2 0.417161 0.334073 0.562191
69 2 0.458705 0.417161 0.686574
95 2 0.417161 0.458705 0.562191
114 2 0.334073 0.417161 0.686574
137 2 0.29253 0.334073 0.562191
174 1 0.458539 0.292695 0.686574
194 1 0.292695 0.458539 0.562191
12 2 0.582839 0.29253 0.686574
47 2 0.665927 0.334073 0.562191
78 2 0.70747 0.417161 0.686574
104 2 0.665927 0.458705 0.562191
123 2 0.582839 0.417161 0.686574
146 2 0.541295 0.334073 0.562191
183 1 0.707304 0.292695 0.686574
203 1 0.541461 0.458539 0.562191
21 2 0.831604 0.29253 0.686574
132 2 0.831604 0.417161 0.686574
155 2 0.79006 0.334073 0.562191
212 1 0.790226 0.458539 0.562191
32 2 0.168396 0.582839 0.562191
63 2 0.209939 0.665927 0.686574
89 2 0.168396 0.70747 0.562191
168 1 0.209774 0.541461 0.686574
6 2 0.334073 0.541295 0.686574
41 2 0.417161 0.582839 0.562191
72 2 0.458705 0.665927 0.686574
98 2 0.417161 0.70747 0.562191
117 2 0.334073 0.665927 0.686574
140 2 0.29253 0.582839 0.562191
177 1 0.458539 0.541461 0.686574
197 1 0.292695 0.707304 0.562191
15 2 0.582839 0.541295 0.686574
50 2 0.665927 0.582839 0.562191
81 2 0.70747 0.665927 0.686574
107 2 0.665927 0.70747 0.562191
126 2 0.582839 0.665927 0.686574
149 2 0.541295 0.582839 0.562191
186 1 0.707304 0.541461 0.686574
206 1 0.541461 0.707304 0.562191
24 2 0.831604 0.541295 0.686574
135 2 0.831604 0.665927 0.686574
158 2 0.79006 0.582839 0.562191
215 1 0.790226 0.707304 0.562191
35 2 0.168396 0.831604 0.562191
171 1 0.209774 0.790226 0.686574
9 2 0.334073 0.79006 0.686574
44 2 0.417161 0.831604 0.562191
143 2 0.29253 0.831604 0.562191
180 1 0.458539 0.790226 0.686574
18 2 0.582839 0.79006 0.686574
53 2 0.665927 0.831604 0.562191
152 2 0.541295 0.831604 0.562191
189 1 0.707304 0.790226 0.686574
27 2 0.831604 0.79006 0.686574
161 2 0.79006 0.831604 0.562191
84 2 0.168396 0.209939 0.810957
93 2 0.417161 0.209939 0.810957
192 1 0.292695 0.209774 0.810957
102 2 0.665927 0.209939 0.810957
201 1 0.541461 0.209774 0.810957
210 1 0.790226 0.209774 0.810957
30 2 0.168396 0.334073 0.810957
87 2 0.168396 0.458705 0.810957
39 2 0.417161 0.334073 0.810957
96 2 0.417161 0.458705 0.810957
138 2 0.29253 0.334073 0.810957
195 1 0.292695 0.458539 0.810957
48 2 0.665927 0.334073 0.810957
105 2 0.665927 0.458705 0.810957
147 2 0.541295 0.334073 0.810957
204 1 0.541461 0.458539 0.810957
156 2 0.79006 0.334073 0.810957
213 1 0.790226 0.458539 0.810957
33 2 0.168396 0.582839 0.810957
90 2 0.168396 0.70747 0.810957
42 2 0.417161 0.582839 0.810957
99 2 0.417161 0.70747 0.810957
141 2 0.29253 0.582839 0.810957
198 1 0.292695 0.707304 0.810957
51 2 0.665927 0.582839 0.810957
108 2 0.665927 0.70747 0.810957
150 2 0.541295 0.582839 0.810957
207 1 0.541461 0.707304 0.810957
159 2 0.79006 0.582839 0.810957
216 1 0.790226 0.707304 0.810957
36 2 0.168396 0.831604 0.810957
45 2 0.417161 0.831604 0.810957
144 2 0.29253 0.831604 0.810957
54 2 0.665927 0.831604 0.810957
153 2 0.541295 0.831604 0.810957
162 2 0.79006 0.831604 0.810957
ITEM: TIMESTEP
100
ITEM: NUMBER OF ATOMS
216
ITEM: BOX BOUNDS pp pp pp
-2.0550000000000002e+00 1.4145001000000001e+01
-2.0550000000000002e+00 1.4145001000000001e+01
-2.0550000000000002e+00 1.4145001000000001e+01
ITEM: ATOMS id type xs ys zs
55 2 0.269341 0.260399 0.299058
64 2 0.451983 0.346894 0.265335
109 2 0.410241 0.257863 0.342443
73 2 0.761613 0.214083 0.285428
118 2 0.661055 0.211857 0.328354
127 2 0.840368 0.177349 0.188895
58 2 0.277269 0.424186 0.258669
163 1 0.32815 0.321772 0.28759
1 2 0.413922 0.368749 0.300207
67 2 0.472061 0.421725 0.32406
112 2 0.318547 0.421552 0.342649
172 1 0.509954 0.180308 0.248529
10 2 0.63087 0.219064 0.329156
76 2 0.772379 0.389574 0.334101
121 2 0.57696 0.439957 0.183181
181 1 0.752295 0.209201 0.314193
19 2 0.77075 0.250802 0.27114
130 2 0.771575 0.388225 0.323987
61 2 0.302269 0.632228 0.238585
166 1 0.290848 0.517279 0.269904
4 2 0.404938 0.545846 0.320826
70 2 0.47627 0.615153 0.349156
115 2 0.310272 0.668584 0.253148
175 1 0.499362 0.457834 0.216152
13 2 0.569204 0.510958 0.326961
79 2 0.691907 0.609773 0.290907
124 2 0.605039 0.67546 0.305444
184 1 0.842506 0.47011 0.265748
22 2 0.672921 0.527342 0.252508
133 2 0.756124 0.585065 0.320656
169 1 0.212385 0.751389 0.315346
7 2 0.363744 0.747842 0.242761
178 1 0.450162 0.720994 0.279928
16 2 0.622268 0.722994 0.258394
187 1 0.687954 0.667851 0.259255
25 2 0.748422 0.73264 0.284079
56 2 0.305326 0.278374 0.453566
82 2 0.185277 0.312889 0.419855
65 2 0.475414 0.251738 0.44604
91 2 0.472649 0.32686 0.283389
110 2 0.434674 0.220769 0.365851
190 1 0.224458 0.306987 0.334702
74 2 0.778301 0.220221 0.45411
100 2 0.607469 0.287155 0.290856
119 2 0.623737 0.237455 0.387944
199 1 0.470142 0.236959 0.256701
128 2 0.800378 0.253832 0.454518
208 1 0.753464 0.262005 0.255543
28 2 0.255809 0.391963 0.281792
59 2 0.283713 0.363292 0.462047
85 2 0.317759 0.493869 0.317544
164 1 0.370581 0.209869 0.491862
2 2 0.408016 0.24403 0.418003
37 2 0.43575 0.354066 0.312839
68 2 0.476244 0.423104 0.487217
94 2 0.430219 0.534687 0.328708
113 2 0.31415 0.430835 0.391073
136 2 0.329426 0.414532 0.404074
173 1 0.538184 0.191089 0.415377
193 1 0.226632 0.518318 0.305667
11 2 0.609327 0.284113 0.369591
46 2 0.654535 0.344752 0.322652
77 2 0.716766 0.394518 0.378191
103 2 0.604269 0.449465 0.352135
122 2 0.562829 0.443064 0.42359
145 2 0.530393 0.401599 0.3561
182 1 0.815255 0.227245 0.324527
202 1 0.516512 0.480059 0.202365
20 2 0.780238 0.202236 0.47631
131 2 0.796674 0.307022 0.43527
154 2 0.71627 0.392081 0.293378
211 1 0.703071 0.480135 0.231811
31 2 0.183657 0.69086 0.283326
62 2 0.254155 0.646118 0.365352
88 2 0.307176 0.709625 0.400282
167 1 0.229546 0.549963 0.353162
5 2 0.319625 0.493509 0.433758
40 2 0.469774 0.636808 0.349523
71 2 0.508216 0.702238 0.4133
97 2 0.309016 0.692027 0.413869
116 2 0.311542 0.668486 0.467483
139 2 0.289705 0.673608 0.42351
176 1 0.548241 0.494874 0.502526
196 1 0.297213 0.701304 0.47762
14 2 0.627533 0.535222 0.465455
49 2 0.654948 0.555751 0.275976
80 2 0.701505 0.62552 0.427436
106 2 0.556512 0.653694 0.41636
125 2 0.574462 0.662912 0.358825
148 2 0.46452 0.586452 0.357412
185 1 0.830417 0.474663 0.43548
205 1 0.431289 0.81922 0.357984
23 2 0.705197 0.530928 0.469892
134 2 0.767186 0.575622 0.342464
157 2 0.69575 0.512812 0.302666
214 1 0.723777 0.805435 0.322821
34 2 0.246646 0.774808 0.431174
170 1 0.225087 0.775665 0.327397
8 2 0.312447 0.732436 0.401588
43 2 0.306205 0.812826 0.290219
142 2 0.318974 0.707977 0.419992
179 1 0.478922 0.754545 0.33487
17 2 0.626651 0.738377 0.419442
52 2 0.579524 0.749352 0.240988
151 2 0.468647 0.747256 0.344628
188 1 0.793817 0.641417 0.454549
26 2 0.728107 0.706216 0.448884
160 2 0.723251 0.755686 0.43206
57 2 0.351147 0.300511 0.640368
83 2 0.289961 0.335682 0.580087
66 2 0.540023 0.271331 0.6879
92 2 0.465086 0.316406 0.544208
111 2 0.353657 0.301267 0.638433
191 1 0.197111 0.303523 0.58081
75 2 0.6183 0.252273 0.573759
101 2 0.628135 0.296317 0.516144
120 2 0.663504 0.221404 0.646553
200 1 0.530891 0.267362 0.530516
129 2 0.83923 0.146337 0.690174
209 1 0.765178 0.258847 0.630512
29 2 0.225312 0.441603 0.624516
60 2 0.30209 0.397081 0.629125
86 2 0.249339 0.479846 0.577764
165 1 0.317257 0.345122 0.725952
3 2 0.404123 0.300005 0.611158
38 2 0.474821 0.390801 0.517117
69 2 0.528338 0.386664 0.665326
95 2 0.403483 0.512381 0.540363
114 2 0.370631 0.463304 0.699506
137 2 0.303942 0.347921 0.563672
174 1 0.539057 0.30576 0.689782
194 1 0.232527 0.469022 0.631143
12 2 0.637439 0.3202 0.539795
47 2 0.650252 0.339753 0.48626
78 2 0.670044 0.355044 0.548056
104 2 0.69647 0.534635 0.523689
123 2 0.589205 0.422564 0.668837
146 2 0.498082 0.315269 0.514193
183 1 0.748211 0.243092 0.593122
203 1 0.445456 0.519888 0.533085
21 2 0.752918 0.377136 0.571756
132 2 0.822934 0.298153 0.627139
155 2 0.717074 0.359685 0.521502
212 1 0.754453 0.484472 0.55814
32 2 0.190354 0.686894 0.574647
63 2 0.266723 0.605311 0.700558
89 2 0.200476 0.728251 0.58453
168 1 0.267437 0.514356 0.758844
6 2 0.397589 0.523727 0.678938
41 2 0.363204 0.555683 0.531545
72 2 0.464662 0.594812 0.664724
98 2 0.422689 0.634137 0.569401
117 2 0.384173 0.664474 0.740794
140 2 0.214238 0.54503 0.496404
177 1 0.519618 0.482496 0.792987
197 1 0.27104 0.729347 0.620623
15 2 0.590366 0.454029 0.652791
50 2 0.590864 0.568263 0.529959
81 2 0.743996 0.618039 0.625508
107 2 0.66467 0.712991 0.599094
126 2 0.545405 0.654811 0.720578
149 2 0.44104 0.52708 0.532426
186 1 0.764911 0.445719 0.657172
206 1 0.509731 0.81778 0.647408
24 2 0.752885 0.39774 0.681407
135 2 0.753191 0.535633 0.713276
158 2 0.674813 0.606421 0.555069
215 1 0.667651 0.773547 0.564035
35 2 0.205496 0.787493 0.684551
171 1 0.239408 0.757086 0.753323
9 2 0.389431 0.720982 0.618396
44 2 0.364713 0.778254 0.580216
143 2 0.311273 0.806141 0.574465
180 1 0.448813 0.681729 0.785873
18 2 0.580876 0.704671 0.66645
53 2 0.613258 0.706396 0.587525
152 2 0.463395 0.746624 0.568114
189 1 0.659778 0.699223 0.685269
27 2 0.72025 0.655608 0.667237
161 2 0.648521 0.726044 0.564565
84 2 0.201203 0.366858 0.730315
93 2 0.447044 0.282464 0.69742
192 1 0.212882 0.32337 0.723591
102 2 0.675368 0.265386 0.721191
201 1 0.450951 0.232929 0.744298
210 1 0.695803 0.25712 0.707932
30 2 0.308383 0.402234 0.754433
87 2 0.265252 0.489004 0.693216
39 2 0.432465 0.378475 0.785369
96 2 0.411829 0.470302 0.715898
138 2 0.384762 0.41926 0.724429
195 1 0.21733 0.47944 0.772136
48 2 0.636398 0.358836 0.818651
105 2 0.601576 0.445762 0.655169
147 2 0.513604 0.34166 0.734937
204 1 0.470353 0.551661 0.826003
156 2 0.725077 0.35666 0.768207
213 1 0.771096 0.540749 0.752992
33 2 0.266185 0.61208 0.723315
90 2 0.218421 0.66368 0.65644
42 2 0.431374 0.600082 0.772654
99 2 0.346362 0.661724 0.701933
141 2 0.311508 0.63143 0.711339
198 1 0.228153 0.747122 0.821948
51 2 0.60812 0.562204 0.778632
108 2 0.567499 0.611572 0.703363
150 2 0.549347 0.585148 0.706041
207 1 0.508278 0.794331 0.669018
159 2 0.718306 0.57065 0.716893
216 1 0.702678 0.768902 0.723289
36 2 0.18931 0.845597 0.666011
45 2 0.390777 0.74961 0.71911
144 2 0.333883 0.765813 0.696985
54 2 0.569011 0.71976 0.745884
153 2 0.499409 0.80139 0.639782
162 2 0.668309 0.790953 0.747806
ITEM: TIMESTEP
200
ITEM: NUMBER OF ATOMS
216
ITEM: BOX BOUNDS pp pp pp
-2.0550000000000002e+00 1.4145001000000001e+01
-2.0550000000000002e+00 1.4145001000000001e+01
-2.0550000000000002e+00 1.4145001000000001e+01
ITEM: ATOMS id type xs ys zs
55 2 0.290522 0.258539 0.292757
64 2 0.451077 0.34322 0.254101
109 2 0.419313 0.25685 0.34718
73 2 0.763862 0.212353 0.289349
118 2 0.669892 0.199914 0.329661
127 2 0.844266 0.177546 0.175596
58 2 0.276693 0.431983 0.273234
163 1 0.318393 0.316356 0.293688
1 2 0.412396 0.378648 0.303468
67 2 0.473502 0.442602 0.324582
112 2 0.324739 0.428638 0.368127
172 1 0.53055 0.164009 0.25434
10 2 0.63357 0.199725 0.331501
76 2 0.783691 0.386658 0.336536
121 2 0.575777 0.433084 0.168565
181 1 0.753472 0.204526 0.332707
19 2 0.769057 0.244434 0.262396
130 2 0.778818 0.382838 0.323961
61 2 0.310273 0.618522 0.248199
166 1 0.300305 0.52924 0.271738
4 2 0.41889 0.54401 0.303912
70 2 0.481716 0.629348 0.35374
115 2 0.323581 0.664395 0.254336
175 1 0.502779 0.45631 0.207277
13 2 0.563584 0.517378 0.312902
79 2 0.6725 0.602872 0.290925
124 2 0.599547 0.674587 0.313615
184 1 0.83914 0.463435 0.272735
22 2 0.652067 0.520794 0.240424
133 2 0.767615 0.577136 0.330979
169 1 0.207061 0.749682 0.321427
7 2 0.368732 0.752272 0.250077
178 1 0.446467 0.728293 0.295812
16 2 0.63518 0.718687 0.270782
187 1 0.687362 0.666387 0.247316
25 2 0.748916 0.713631 0.278377
56 2 0.304179 0.272093 0.454293
82 2 0.170236 0.33777 0.446371
65 2 0.477338 0.25752 0.433343
91 2 0.467422 0.32989 0.275699
110 2 0.437088 0.236301 0.343617
190 1 0.220143 0.310302 0.332804
74 2 0.787367 0.232072 0.446358
100 2 0.608479 0.292521 0.292576
119 2 0.609943 0.239359 0.371453
199 1 0.465626 0.235635 0.260388
128 2 0.830131 0.256844 0.458028
208 1 0.738882 0.272952 0.248601
28 2 0.270027 0.408952 0.292058
59 2 0.277377 0.362522 0.461607
85 2 0.339456 0.486267 0.306812
164 1 0.363228 0.21134 0.498389
2 2 0.423814 0.256679 0.418521
37 2 0.444354 0.351791 0.329386
68 2 0.479902 0.439743 0.481325
94 2 0.448066 0.527113 0.319818
113 2 0.319115 0.435658 0.386537
136 2 0.341148 0.413788 0.391697
173 1 0.554318 0.172357 0.437519
193 1 0.199183 0.520701 0.27941
11 2 0.609929 0.281288 0.36596
46 2 0.644917 0.337494 0.327977
77 2 0.709586 0.390349 0.369319
103 2 0.596817 0.453388 0.359916
122 2 0.56174 0.445973 0.418787
145 2 0.543529 0.41257 0.361996
182 1 0.821977 0.224967 0.314138
202 1 0.514784 0.471339 0.183357
20 2 0.77197 0.19603 0.475503
131 2 0.798479 0.290677 0.453484
154 2 0.711269 0.388248 0.289566
211 1 0.672295 0.486397 0.200787
31 2 0.184629 0.688936 0.277582
62 2 0.260461 0.626913 0.355609
88 2 0.318676 0.718076 0.404165
167 1 0.22842 0.553148 0.340377
5 2 0.318359 0.506039 0.444036
40 2 0.474283 0.641501 0.367328
71 2 0.49023 0.702553 0.405778
97 2 0.304058 0.676619 0.412264
116 2 0.321858 0.678553 0.483272
139 2 0.291457 0.681374 0.428337
176 1 0.551488 0.503392 0.516367
196 1 0.296664 0.69577 0.484263
14 2 0.633703 0.537668 0.466389
49 2 0.65105 0.543861 0.266643
80 2 0.684249 0.619885 0.432449
106 2 0.552539 0.659628 0.408919
125 2 0.579198 0.66335 0.359114
148 2 0.477883 0.58936 0.36986
185 1 0.831153 0.456584 0.447607
205 1 0.418718 0.82615 0.371837
23 2 0.686226 0.539992 0.470013
134 2 0.766474 0.57556 0.338124
157 2 0.691785 0.513148 0.282799
214 1 0.72897 0.820824 0.323035
34 2 0.286949 0.724361 0.432647
170 1 0.227721 0.769759 0.322011
8 2 0.304914 0.729326 0.406855
43 2 0.305815 0.806561 0.289254
142 2 0.312146 0.701385 0.426446
179 1 0.462976 0.757498 0.335234
17 2 0.635099 0.752125 0.420199
52 2 0.562128 0.757719 0.236482
151 2 0.469792 0.733516 0.340517
188 1 0.804333 0.636283 0.467524
26 2 0.737423 0.712056 0.444432
160 2 0.723747 0.753969 0.438985
57 2 0.348511 0.315353 0.639586
83 2 0.293622 0.340694 0.576337
66 2 0.549877 0.26923 0.699458
92 2 0.462388 0.314402 0.543394
111 2 0.35581 0.309793 0.637154
191 1 0.191458 0.309066 0.575633
75 2 0.607779 0.244412 0.569718
101 2 0.621945 0.29564 0.514338
120 2 0.666076 0.210278 0.640343
200 1 0.533508 0.259063 0.53707
129 2 0.841248 0.138557 0.69116
209 1 0.75887 0.259162 0.622468
29 2 0.217771 0.448274 0.622324
60 2 0.300584 0.397587 0.627369
86 2 0.249146 0.472858 0.567578
165 1 0.32433 0.348828 0.74537
3 2 0.405241 0.301766 0.604057
38 2 0.471638 0.410065 0.51784
69 2 0.532244 0.386634 0.673633
95 2 0.411274 0.505661 0.537986
114 2 0.36676 0.463686 0.70718
137 2 0.315451 0.355058 0.571093
174 1 0.544692 0.303029 0.697097
194 1 0.250178 0.463981 0.633273
12 2 0.639098 0.33104 0.541322
47 2 0.658071 0.338213 0.480514
78 2 0.659094 0.351773 0.540958
104 2 0.70161 0.533175 0.51943
123 2 0.588226 0.415524 0.676187
146 2 0.499999 0.31388 0.513926
183 1 0.753682 0.237829 0.59599
203 1 0.445947 0.520381 0.529907
21 2 0.756443 0.385713 0.564469
132 2 0.827203 0.301004 0.620123
155 2 0.706234 0.35538 0.517088
212 1 0.752528 0.480269 0.562211
32 2 0.185672 0.686002 0.582434
63 2 0.270036 0.616322 0.69539
89 2 0.202596 0.729297 0.585914
168 1 0.263266 0.512219 0.770256
6 2 0.386238 0.555882 0.662896
41 2 0.369477 0.550315 0.528785
72 2 0.459428 0.593974 0.65767
98 2 0.425601 0.629548 0.570513
117 2 0.381351 0.667979 0.741602
140 2 0.202234 0.533916 0.473983
177 1 0.524099 0.476681 0.805251
197 1 0.272726 0.73385 0.61226
15 2 0.592974 0.449527 0.655834
50 2 0.600193 0.580223 0.527428
81 2 0.765529 0.623916 0.611353
107 2 0.664755 0.709909 0.60627
126 2 0.531048 0.648204 0.719913
149 2 0.443419 0.522183 0.525458
186 1 0.768915 0.435372 0.652218
206 1 0.510748 0.82077 0.650859
24 2 0.747097 0.395477 0.681242
135 2 0.749297 0.527185 0.714132
158 2 0.665595 0.61503 0.555796
215 1 0.645226 0.785411 0.576528
35 2 0.200507 0.786033 0.69536
171 1 0.239229 0.754201 0.758949
9 2 0.394221 0.720483 0.608175
44 2 0.362632 0.775079 0.590314
143 2 0.312351 0.799419 0.58484
180 1 0.456673 0.686094 0.793536
18 2 0.560111 0.695669 0.675353
53 2 0.610861 0.703174 0.583968
152 2 0.472037 0.74494 0.569936
189 1 0.657946 0.698149 0.691169
27 2 0.714343 0.655412 0.67012
161 2 0.638998 0.71933 0.560928
84 2 0.195596 0.371286 0.72959
93 2 0.446906 0.283911 0.697143
192 1 0.20367 0.331661 0.721884
102 2 0.682203 0.259238 0.710921
201 1 0.439826 0.235517 0.739167
210 1 0.700673 0.255414 0.70181
30 2 0.347381 0.410743 0.762075
87 2 0.255002 0.495654 0.683422
39 2 0.432132 0.415969 0.779849
96 2 0.407754 0.478576 0.725003
138 2 0.386959 0.426178 0.723258
195 1 0.208938 0.489389 0.766446
48 2 0.641918 0.38036 0.832846
105 2 0.596569 0.445442 0.655997
147 2 0.503727 0.333325 0.744246
204 1 0.460024 0.547256 0.823294
156 2 0.7293 0.337464 0.758783
213 1 0.779766 0.550181 0.749169
33 2 0.274783 0.607904 0.715197
90 2 0.212368 0.643914 0.651959
42 2 0.425386 0.579833 0.775622
99 2 0.345265 0.659043 0.706382
141 2 0.313997 0.630384 0.714776
198 1 0.217312 0.759932 0.835217
51 2 0.597319 0.556774 0.783026
108 2 0.563854 0.604046 0.709172
150 2 0.546532 0.583015 0.711532
207 1 0.507073 0.802707 0.655169
159 2 0.709343 0.562884 0.717492
216 1 0.692288 0.76739 0.709297
36 2 0.195113 0.849594 0.665062
45 2 0.386459 0.763678 0.722024
144 2 0.336548 0.758442 0.700713
54 2 0.567084 0.706891 0.747119
153 2 0.501279 0.806539 0.639146
162 2 0.628689 0.803794 0.745494
ITEM: TIMESTEP
300
ITEM: NUMBER OF ATOMS
216
ITEM: BOX BOUNDS pp pp pp
-2.0550000000000002e+00 1.4145001000000001e+01
-2.0550000000000002e+00 1.4145001000000001e+01
-2.0550000000000002e+00 1.4145001000000001e+01
ITEM: ATOMS id type xs ys zs
55 2 0.295837 0.257986 0.291518
64 2 0.45207 0.341439 0.252402
109 2 0.419126 0.255488 0.348596
73 2 0.765333 0.212471 0.288469
118 2 0.667838 0.200458 0.327091
127 2 0.844926 0.177884 0.173483
58 2 0.277786 0.429794 0.27646
163 1 0.315782 0.315349 0.293376
1 2 0.412239 0.379769 0.302253
67 2 0.473777 0.446776 0.326344
112 2 0.325986 0.428399 0.367526
172 1 0.53305 0.16283 0.254747
10 2 0.635386 0.195519 0.331715
76 2 0.785586 0.386493 0.336128
121 2 0.576307 0.430547 0.16431
181 1 0.755391 0.201576 0.33532
19 2 0.768074 0.24358 0.260526
130 2 0.780941 0.381265 0.322505
61 2 0.310917 0.612864 0.251481
166 1 0.303715 0.531813 0.271713
4 2 0.422692 0.543818 0.297758
70 2 0.480768 0.632417 0.356517
115 2 0.325926 0.664392 0.253448
175 1 0.505533 0.456401 0.205529
13 2 0.562556 0.519553 0.308918
79 2 0.667451 0.598203 0.291391
124 2 0.598406 0.675061 0.31688
184 1 0.83961 0.462136 0.272236
22 2 0.648339 0.520611 0.238219
133 2 0.767605 0.577613 0.3332
169 1 0.20557 0.749557 0.322385
7 2 0.36975 0.753188 0.252762
178 1 0.446753 0.730411 0.30003
16 2 0.637444 0.718308 0.273034
187 1 0.688094 0.666366 0.246492
25 2 0.749799 0.709874 0.278578
56 2 0.304228 0.272473 0.454117
82 2 0.169336 0.339926 0.448708
65 2 0.477232 0.258889 0.431066
91 2 0.467056 0.331176 0.273762
110 2 0.437664 0.239769 0.337857
190 1 0.218652 0.308667 0.332319
74 2 0.791877 0.235021 0.446385
100 2 0.608378 0.293939 0.290777
119 2 0.61072 0.239075 0.371282
199 1 0.461538 0.230313 0.263889
128 2 0.833895 0.257141 0.457143
208 1 0.734618 0.274917 0.248046
28 2 0.272565 0.413383 0.291114
59 2 0.276173 0.361986 0.461165
85 2 0.341734 0.486932 0.305919
164 1 0.362075 0.21152 0.499012
2 2 0.426404 0.259849 0.420296
37 2 0.447652 0.352262 0.334669
68 2 0.478686 0.442424 0.480335
94 2 0.452736 0.524801 0.3164
113 2 0.320341 0.436722 0.3839
136 2 0.343809 0.413734 0.390643
173 1 0.556021 0.170355 0.438934
193 1 0.190859 0.522042 0.275327
11 2 0.610492 0.280151 0.365472
46 2 0.643754 0.337497 0.329741
77 2 0.707049 0.390369 0.367943
103 2 0.596222 0.454035 0.360353
122 2 0.561715 0.446141 0.418563
145 2 0.544064 0.41291 0.36315
182 1 0.821316 0.22315 0.312518
202 1 0.514647 0.466941 0.177888
20 2 0.771166 0.194443 0.476394
131 2 0.798338 0.288223 0.455064
154 2 0.711309 0.388367 0.288453
211 1 0.66479 0.487895 0.192097
31 2 0.185056 0.687823 0.277364
62 2 0.261586 0.623049 0.353235
88 2 0.322272 0.719134 0.406125
167 1 0.229422 0.552149 0.337798
5 2 0.317274 0.508207 0.445227
40 2 0.475872 0.641366 0.371185
71 2 0.485582 0.702287 0.402518
97 2 0.30256 0.674607 0.411851
116 2 0.323182 0.682523 0.48989
139 2 0.29553 0.684906 0.426099
176 1 0.552972 0.503724 0.517983
196 1 0.296558 0.695531 0.484577
14 2 0.634967 0.537109 0.468613
49 2 0.648689 0.54254 0.264895
80 2 0.682622 0.618603 0.434347
106 2 0.551657 0.660452 0.408477
125 2 0.579857 0.664458 0.359772
148 2 0.481085 0.589168 0.372654
185 1 0.832764 0.453879 0.447169
205 1 0.414727 0.829405 0.37574
23 2 0.681328 0.541174 0.47102
134 2 0.767111 0.574494 0.337438
157 2 0.689134 0.513256 0.279363
214 1 0.729683 0.823597 0.322764
34 2 0.290093 0.717395 0.433141
170 1 0.227889 0.768989 0.320009
8 2 0.303757 0.72916 0.407668
43 2 0.306248 0.804493 0.28956
142 2 0.313042 0.698451 0.427012
179 1 0.460062 0.757454 0.334448
17 2 0.637044 0.754283 0.420396
52 2 0.559983 0.758743 0.234649
151 2 0.469523 0.733589 0.341145
188 1 0.805222 0.636109 0.46994
26 2 0.741627 0.711872 0.442891
160 2 0.725803 0.752792 0.441007
57 2 0.349145 0.317701 0.640357
83 2 0.293489 0.342141 0.575839
66 2 0.552214 0.268992 0.701653
92 2 0.462446 0.313498 0.544213
111 2 0.355298 0.310928 0.635879
191 1 0.189589 0.308953 0.574943
75 2 0.60665 0.245012 0.569743
101 2 0.621136 0.295803 0.513511
120 2 0.66604 0.208866 0.640639
200 1 0.534346 0.259201 0.540217
129 2 0.841801 0.136443 0.69145
209 1 0.758298 0.257978 0.621207
29 2 0.215427 0.45219 0.621219
60 2 0.299379 0.39728 0.625936
86 2 0.249871 0.474259 0.566508
165 1 0.326693 0.349505 0.751449
3 2 0.404454 0.299864 0.6034
38 2 0.471071 0.413724 0.518236
69 2 0.535098 0.385892 0.674792
95 2 0.411592 0.505638 0.538883
114 2 0.365831 0.463792 0.708124
137 2 0.315212 0.355569 0.571034
174 1 0.545722 0.302579 0.697699
194 1 0.254083 0.464637 0.636243
12 2 0.638725 0.331142 0.541112
47 2 0.657689 0.338185 0.478683
78 2 0.658581 0.351308 0.540395
104 2 0.703705 0.532143 0.519628
123 2 0.58608 0.41388 0.676083
146 2 0.50118 0.31372 0.514048
183 1 0.756681 0.235517 0.596422
203 1 0.445132 0.52079 0.528009
21 2 0.756862 0.388513 0.564875
132 2 0.827631 0.301511 0.620398
155 2 0.705676 0.354847 0.516751
212 1 0.754038 0.479889 0.562389
32 2 0.185491 0.684981 0.582536
63 2 0.269737 0.616599 0.692868
89 2 0.20295 0.726398 0.586446
168 1 0.261857 0.511443 0.772788
6 2 0.38383 0.559527 0.659176
41 2 0.370612 0.550119 0.528305
72 2 0.459228 0.594263 0.656928
98 2 0.427228 0.629412 0.571936
117 2 0.380556 0.668927 0.741693
140 2 0.200058 0.532334 0.470466
177 1 0.523861 0.475674 0.807539
197 1 0.273717 0.733762 0.610952
15 2 0.595956 0.453235 0.654038
50 2 0.601109 0.58235 0.52728
81 2 0.772089 0.624856 0.606727
107 2 0.664011 0.710311 0.608634
126 2 0.527855 0.646866 0.721145
149 2 0.443013 0.520653 0.525215
186 1 0.769381 0.433079 0.651351
206 1 0.508655 0.822173 0.649376
24 2 0.748022 0.394156 0.680159
135 2 0.748347 0.524865 0.714389
158 2 0.663613 0.615729 0.556755
215 1 0.642428 0.78626 0.578228
35 2 0.19873 0.783337 0.697443
171 1 0.239339 0.753088 0.759911
9 2 0.395525 0.720651 0.607081
44 2 0.361574 0.776023 0.591541
143 2 0.311997 0.79724 0.586573
180 1 0.460149 0.687248 0.795565
18 2 0.554875 0.694079 0.67583
53 2 0.609405 0.703234 0.583206
152 2 0.475834 0.744777 0.572221
189 1 0.656946 0.697637 0.692417
27 2 0.712676 0.655906 0.669761
161 2 0.635709 0.718553 0.561634
84 2 0.19408 0.371713 0.729466
93 2 0.446024 0.284222 0.696663
192 1 0.202098 0.334282 0.721787
102 2 0.68348 0.258557 0.710227
201 1 0.438474 0.236401 0.7391
210 1 0.702282 0.252795 0.700366
30 2 0.355608 0.410892 0.762406
87 2 0.25139 0.497501 0.681188
39 2 0.429652 0.425081 0.779616
96 2 0.40645 0.481076 0.726979
138 2 0.386752 0.426999 0.722935
195 1 0.207463 0.492273 0.767876
48 2 0.644836 0.382165 0.83394
105 2 0.594632 0.44424 0.659137
147 2 0.501495 0.332301 0.747159
204 1 0.457675 0.548144 0.824157
156 2 0.729629 0.33515 0.758251
213 1 0.781472 0.552652 0.747575
33 2 0.274236 0.606101 0.709602
90 2 0.211892 0.644259 0.652511
42 2 0.425087 0.578181 0.776103
99 2 0.345658 0.657885 0.708219
141 2 0.316156 0.630198 0.716726
198 1 0.214791 0.762713 0.838024
51 2 0.597376 0.558055 0.784441
108 2 0.56372 0.601699 0.710869
150 2 0.546274 0.581826 0.713041
207 1 0.505738 0.804716 0.654154
159 2 0.706152 0.561238 0.717355
216 1 0.689765 0.766918 0.706984
36 2 0.195787 0.85117 0.664107
45 2 0.385078 0.766044 0.721243
144 2 0.337104 0.757756 0.701335
54 2 0.566833 0.706506 0.745726
153 2 0.502356 0.808245 0.641376
162 2 0.622007 0.803993 0.747262
ITEM: TIMESTEP
400
ITEM: NUMBER OF ATOMS
216
ITEM: BOX BOUNDS pp pp pp
-2.0550000000000002e+00 1.4145001000000001e+01
-2.0550000000000002e+00 1.4145001000000001e+01
-2.0550000000000002e+00 1.4145001000000001e+01
ITEM: ATOMS id type xs ys zs
55 2 0.296919 0.257838 0.291348
64 2 0.452265 0.341042 0.252156
109 2 0.419155 0.255196 0.348906
73 2 0.765528 0.212709 0.28835
118 2 0.667501 0.200612 0.326825
127 2 0.845063 0.177965 0.173058
58 2 0.277769 0.429431 0.277135
163 1 0.315416 0.315212 0.293189
1 2 0.412262 0.379951 0.301818
67 2 0.473877 0.447616 0.326442
112 2 0.326259 0.428336 0.367409
172 1 0.53359 0.162641 0.254773
10 2 0.63575 0.194903 0.331823
76 2 0.785865 0.386612 0.335959
121 2 0.576486 0.429937 0.163229
181 1 0.755723 0.200943 0.335809
19 2 0.767962 0.243416 0.260205
130 2 0.781387 0.381066 0.322138
61 2 0.310868 0.611698 0.251957
166 1 0.304467 0.532365 0.271682
4 2 0.423502 0.543828 0.296247
70 2 0.480647 0.633051 0.3571
115 2 0.326506 0.66433 0.253226
175 1 0.506064 0.456343 0.205104
13 2 0.562418 0.520037 0.308124
79 2 0.666606 0.59717 0.291444
124 2 0.598232 0.67515 0.317621
184 1 0.839674 0.461994 0.272167
22 2 0.647569 0.520444 0.237748
133 2 0.767493 0.576894 0.333452