ITEM: TIMESTEP
0
ITEM: NUMBER OF ATOMS
216
ITEM: BOX BOUNDS pp pp pp
-2.0550000000000002e+00 1.4145001000000001e+01
-2.0550000000000002e+00 1.4145001000000001e+01
-2.0550000000000002e+00 1.4145001000000001e+01
ITEM: ATOMS id type xs ys zs
127 2 0.845112 0.177995 0.172904
121 2 0.576555 0.429681 0.162801
175 1 0.506248 0.456316 0.204946
208 1 0.733627 0.275413 0.247786
202 1 0.514625 0.465571 0.17632
211 1 0.662742 0.48804 0.189614
22 2 0.647294 0.520378 0.23757
187 1 0.688335 0.666485 0.24642
52 2 0.559498 0.758861 0.23411
110 2 0.437823 0.240216 0.336395
199 1 0.460199 0.228874 0.265101
164 1 0.361912 0.211377 0.499144
118 2 0.667381 0.200666 0.32674
172 1 0.533788 0.162575 0.254776
10 2 0.635877 0.194691 0.331868
119 2 0.610938 0.238915 0.371248
173 1 0.556382 0.169759 0.439258
73 2 0.7656 0.212789 0.288316
181 1 0.755841 0.200714 0.335986
19 2 0.767915 0.243356 0.260092
74 2 0.79235 0.23528 0.446165
182 1 0.821026 0.222652 0.31204
20 2 0.771405 0.194275 0.476635
82 2 0.169217 0.340386 0.44923
190 1 0.218168 0.307986 0.332196
55 2 0.2973 0.257788 0.291305
64 2 0.452333 0.340909 0.252063
109 2 0.419167 0.255088 0.349021
58 2 0.277871 0.42924 0.27736
163 1 0.315298 0.315168 0.293113
1 2 0.412268 0.38002 0.301664
67 2 0.473913 0.447918 0.326465
112 2 0.326364 0.428314 0.36737
56 2 0.304137 0.272575 0.454129
65 2 0.477253 0.25931 0.430359
91 2 0.46709 0.331439 0.273202
28 2 0.273343 0.414423 0.290624
59 2 0.275743 0.36209 0.460937
85 2 0.342264 0.487072 0.305671
2 2 0.427164 0.260778 0.420939
37 2 0.448434 0.352629 0.336378
68 2 0.478283 0.443167 0.479831
113 2 0.320602 0.436831 0.383246
136 2 0.34451 0.413705 0.390441
100 2 0.608382 0.29444 0.290132
11 2 0.610645 0.280011 0.365313
46 2 0.643382 0.33749 0.330234
77 2 0.706467 0.390366 0.367723
103 2 0.596156 0.454241 0.36041
122 2 0.561508 0.446195 0.418298
145 2 0.544117 0.412868 0.363443
154 2 0.711327 0.388432 0.288026
47 2 0.657561 0.338317 0.478344
76 2 0.785955 0.386658 0.335894
130 2 0.781545 0.381001 0.322007
184 1 0.839694 0.461956 0.272146
128 2 0.83475 0.257419 0.456941
131 2 0.798389 0.287703 0.455527
185 1 0.833249 0.453077 0.446928
169 1 0.205127 0.749672 0.322576
193 1 0.188785 0.522483 0.274719
31 2 0.18513 0.687457 0.277286
167 1 0.229667 0.551998 0.336945
140 2 0.199437 0.531934 0.469566
61 2 0.310833 0.611296 0.252106
166 1 0.304739 0.532563 0.271672
4 2 0.423797 0.543846 0.295697
70 2 0.480607 0.633281 0.357314
115 2 0.326709 0.664297 0.253143
178 1 0.447005 0.731113 0.3011
94 2 0.453691 0.523995 0.315655
62 2 0.261999 0.621966 0.352672
88 2 0.323121 0.719294 0.40676
5 2 0.316864 0.508736 0.445465
40 2 0.476103 0.641987 0.37178
71 2 0.485027 0.701897 0.402345
97 2 0.302079 0.674155 0.41183
116 2 0.323642 0.683571 0.491613
139 2 0.296769 0.685724 0.425439
196 1 0.296612 0.695499 0.484582
148 2 0.48176 0.589103 0.373418
34 2 0.290452 0.716049 0.433265
8 2 0.303385 0.729162 0.407672
142 2 0.313116 0.697725 0.427085
151 2 0.468926 0.733882 0.340906
13 2 0.562376 0.520211 0.307839
79 2 0.66632 0.5968 0.291446
124 2 0.59817 0.67518 0.317893
16 2 0.638084 0.718319 0.273604
14 2 0.635426 0.537338 0.469173
49 2 0.647908 0.542335 0.26425
80 2 0.682243 0.61819 0.434872
106 2 0.551212 0.660796 0.408578
125 2 0.579916 0.664945 0.36
23 2 0.679767 0.541429 0.471429
157 2 0.688243 0.51334 0.278405
26 2 0.742856 0.711768 0.442451
133 2 0.767475 0.576666 0.333547
25 2 0.750043 0.708831 0.27873
134 2 0.767633 0.575039 0.337576
188 1 0.80538 0.636136 0.470555
170 1 0.227929 0.768689 0.319433
7 2 0.369786 0.753533 0.253346
205 1 0.413609 0.830212 0.376936
43 2 0.306416 0.803872 0.289692
179 1 0.459534 0.757193 0.334392
214 1 0.729885 0.824352 0.322701
17 2 0.637625 0.754752 0.420471
160 2 0.726477 0.75239 0.441584
201 1 0.438228 0.23654 0.739163
75 2 0.606491 0.245249 0.569513
120 2 0.666239 0.208402 0.640811
129 2 0.841963 0.135825 0.691536
183 1 0.757548 0.234845 0.5965
191 1 0.1889 0.308847 0.574848
29 2 0.214367 0.452523 0.620944
84 2 0.193691 0.371963 0.729261
192 1 0.201636 0.335079 0.721759
57 2 0.349381 0.318334 0.640144
83 2 0.293356 0.342599 0.575755
92 2 0.462569 0.313244 0.544483
111 2 0.354854 0.310907 0.635816
60 2 0.298972 0.397122 0.625447
86 2 0.250107 0.474822 0.566153
3 2 0.40426 0.299235 0.603216
38 2 0.471017 0.41481 0.518219
114 2 0.36547 0.46371 0.708687
137 2 0.31511 0.355788 0.571011
194 1 0.254985 0.464585 0.636596
93 2 0.44568 0.284184 0.696499
87 2 0.250116 0.498296 0.680448
96 2 0.406235 0.481794 0.727174
138 2 0.386602 0.427044 0.723131
66 2 0.552738 0.268981 0.702607
101 2 0.620876 0.295856 0.513426
200 1 0.53471 0.259135 0.541049
69 2 0.535844 0.385736 0.67528
174 1 0.54586 0.302293 0.698056
12 2 0.638569 0.331276 0.541029
78 2 0.658537 0.351157 0.540256
123 2 0.58565 0.413191 0.676047
146 2 0.501448 0.313542 0.514041
155 2 0.706434 0.354082 0.516328
15 2 0.59604 0.453663 0.654195
24 2 0.748374 0.393606 0.679844
102 2 0.683624 0.257979 0.710111
210 1 0.703017 0.252145 0.699788
105 2 0.595032 0.444438 0.659629
147 2 0.500977 0.331985 0.747967
209 1 0.758075 0.25749 0.620867
21 2 0.756912 0.389152 0.564903
132 2 0.82765 0.301607 0.620382
212 1 0.754193 0.479826 0.562246
186 1 0.769846 0.432509 0.651295
32 2 0.185578 0.684719 0.582595
89 2 0.203021 0.725508 0.586548
90 2 0.21172 0.644105 0.652519
95 2 0.412066 0.505548 0.538971
203 1 0.444479 0.521083 0.52693
63 2 0.269302 0.616491 0.692777
6 2 0.383033 0.560348 0.658162
41 2 0.370818 0.549898 0.528295
72 2 0.459154 0.594263 0.656732
98 2 0.427519 0.629381 0.572304
117 2 0.380261 0.669178 0.741852
197 1 0.273881 0.733874 0.610523
149 2 0.443389 0.521025 0.525813
9 2 0.395986 0.720757 0.60684
152 2 0.477011 0.744783 0.573016
33 2 0.27481 0.606006 0.70892
99 2 0.345692 0.657854 0.70863
141 2 0.316634 0.630388 0.717172
176 1 0.553513 0.503087 0.518988
104 2 0.704504 0.531797 0.519722
50 2 0.601406 0.582825 0.527233
107 2 0.663745 0.710444 0.609233
126 2 0.527001 0.64657 0.721468
135 2 0.748286 0.524447 0.71458
158 2 0.663102 0.61608 0.556905
18 2 0.553463 0.693597 0.675832
53 2 0.608886 0.703299 0.583102
189 1 0.656641 0.697477 0.692767
27 2 0.712227 0.656128 0.66944
161 2 0.634859 0.718531 0.561846
108 2 0.563747 0.601226 0.711409
150 2 0.546268 0.581601 0.713622
159 2 0.70526 0.560793 0.717333
54 2 0.566813 0.706538 0.74517
81 2 0.774094 0.625001 0.605465
213 1 0.781828 0.553358 0.747074
35 2 0.198452 0.782831 0.698093
36 2 0.195919 0.851489 0.663888
44 2 0.361233 0.776431 0.591707
143 2 0.312018 0.79673 0.586924
45 2 0.384693 0.76661 0.720925
144 2 0.337211 0.75761 0.70148
206 1 0.508133 0.822715 0.648951
215 1 0.641732 0.786369 0.578729
207 1 0.506046 0.805236 0.653677
216 1 0.689071 0.766817 0.706437
153 2 0.501786 0.80905 0.642442
162 2 0.620149 0.803874 0.74786
195 1 0.207115 0.492979 0.767967
165 1 0.327479 0.349741 0.753352
30 2 0.357757 0.410992 0.762125
39 2 0.428751 0.427316 0.779634
177 1 0.523793 0.475227 0.808302
48 2 0.645624 0.382531 0.834197
156 2 0.729301 0.33476 0.758132
168 1 0.261511 0.511207 0.773543
180 1 0.461173 0.6877 0.796154
204 1 0.457037 0.548558 0.824312
42 2 0.425046 0.57791 0.776312
51 2 0.597438 0.558562 0.784872
171 1 0.239297 0.752892 0.760239
198 1 0.21403 0.763558 0.838834
ITEM: TIMESTEP
100
ITEM: NUMBER OF ATOMS
216
ITEM: BOX BOUNDS pp pp pp
-2.0550000000000002e+00 1.4145001000000001e+01
-2.0550000000000002e+00 1.4145001000000001e+01
-2.0550000000000002e+00 1.4145001000000001e+01
ITEM: ATOMS id type xs ys zs
127 2 0.846266 0.178824 0.168989
121 2 0.577369 0.424859 0.156481
175 1 0.515229 0.444211 0.208929
208 1 0.721615 0.281119 0.244477
202 1 0.492001 0.463314 0.15788
211 1 0.633437 0.495256 0.172766
22 2 0.638449 0.522698 0.223005
187 1 0.694138 0.668189 0.218793
52 2 0.554911 0.752392 0.224162
110 2 0.441332 0.239855 0.342316
199 1 0.436901 0.20906 0.26153
164 1 0.371348 0.204773 0.498775
118 2 0.667912 0.201008 0.325867
172 1 0.546738 0.155091 0.243556
10 2 0.632576 0.195662 0.340693
119 2 0.6161 0.243161 0.372914
173 1 0.552766 0.173569 0.424766
73 2 0.765929 0.212731 0.287909
181 1 0.770656 0.176705 0.346651
19 2 0.763779 0.24807 0.263575
74 2 0.794436 0.231329 0.445866
182 1 0.820817 0.21869 0.310377
20 2 0.77426 0.191959 0.476477
82 2 0.168899 0.346189 0.457922
190 1 0.214781 0.302702 0.329503
55 2 0.306678 0.260142 0.291715
64 2 0.454111 0.334014 0.245863
109 2 0.415205 0.252603 0.354512
58 2 0.280181 0.430463 0.283424
163 1 0.299936 0.312543 0.280214
1 2 0.413281 0.385099 0.299186
67 2 0.484106 0.44818 0.325977
112 2 0.33034 0.439806 0.371953
56 2 0.305859 0.272761 0.44802
65 2 0.478755 0.256779 0.422604
91 2 0.457631 0.331549 0.278199
28 2 0.276364 0.421503 0.286953
59 2 0.272946 0.35928 0.457969
85 2 0.341853 0.48226 0.318661
2 2 0.435754 0.265448 0.425645
37 2 0.45681 0.356064 0.346391
68 2 0.480223 0.439366 0.489224
113 2 0.323317 0.425607 0.385393
136 2 0.344959 0.421911 0.377506
100 2 0.611432 0.297083 0.289265
11 2 0.610394 0.28703 0.357998
46 2 0.635819 0.342978 0.334484
77 2 0.711777 0.390943 0.367631
103 2 0.596809 0.452264 0.359096
122 2 0.555327 0.454378 0.430559
145 2 0.546315 0.412494 0.367277
154 2 0.705056 0.39174 0.284313
47 2 0.651248 0.331458 0.485999
76 2 0.787846 0.390191 0.3408
130 2 0.779047 0.367824 0.31314
184 1 0.833919 0.461237 0.278099
128 2 0.837556 0.263496 0.455241
131 2 0.798206 0.283661 0.454748
185 1 0.83665 0.438116 0.441912
169 1 0.190705 0.738897 0.325128
193 1 0.187551 0.52532 0.266789
31 2 0.194192 0.681634 0.273561
167 1 0.229378 0.563509 0.322393
140 2 0.190986 0.517645 0.474297
61 2 0.309538 0.608352 0.245951
166 1 0.330086 0.52124 0.254363
4 2 0.429962 0.542683 0.275715
70 2 0.479442 0.641411 0.361461
115 2 0.327489 0.662573 0.249575
178 1 0.449068 0.746105 0.318161
94 2 0.470563 0.521063 0.316843
62 2 0.266134 0.61968 0.349253
88 2 0.33023 0.72424 0.407524
5 2 0.318247 0.510768 0.449716
40 2 0.470101 0.641598 0.380677
71 2 0.49659 0.692736 0.39834
97 2 0.300827 0.675934 0.411143
116 2 0.320917 0.689315 0.502737
139 2 0.304116 0.69619 0.418969
196 1 0.301267 0.692416 0.480812
148 2 0.486488 0.593726 0.377199
34 2 0.298084 0.714543 0.440961
8 2 0.296965 0.723191 0.406857
142 2 0.316398 0.698035 0.424311
151 2 0.464963 0.73357 0.338879
13 2 0.544965 0.525961 0.299334
79 2 0.651293 0.584456 0.291547
124 2 0.591838 0.66583 0.313683
16 2 0.632729 0.731146 0.282311
14 2 0.639752 0.533654 0.47242
49 2 0.645354 0.542054 0.259038
80 2 0.6798 0.617911 0.436651
106 2 0.552139 0.677547 0.412939
125 2 0.584786 0.672522 0.36952
23 2 0.671375 0.53276 0.475395
157 2 0.684679 0.516439 0.276222
26 2 0.749287 0.710844 0.439308
133 2 0.796385 0.575546 0.351985
25 2 0.74413 0.691202 0.287769
134 2 0.747455 0.576338 0.340107
188 1 0.80939 0.644569 0.487401
170 1 0.213821 0.754127 0.312388
7 2 0.365521 0.747988 0.249264
205 1 0.40291 0.824405 0.396933
43 2 0.30851 0.812745 0.292181
179 1 0.457201 0.753112 0.33427
214 1 0.732988 0.833782 0.32225
17 2 0.640098 0.753482 0.415831
160 2 0.730268 0.749768 0.441745
201 1 0.424992 0.245704 0.747127
75 2 0.605149 0.244473 0.562917
120 2 0.668304 0.20598 0.641575
129 2 0.844208 0.12675 0.692799
183 1 0.770645 0.225373 0.595818
191 1 0.180255 0.308004 0.571415
29 2 0.213905 0.456721 0.621718
84 2 0.214091 0.370492 0.721861
192 1 0.189095 0.344836 0.716772
57 2 0.348228 0.323587 0.637172
83 2 0.293363 0.345391 0.57743
92 2 0.458565 0.320759 0.546765
111 2 0.352329 0.313166 0.632977
60 2 0.292797 0.393291 0.618428
86 2 0.260592 0.479055 0.557396
3 2 0.401791 0.298918 0.601392
38 2 0.475511 0.420514 0.522709
114 2 0.362867 0.454773 0.712377
137 2 0.30854 0.351332 0.574078
194 1 0.236456 0.491736 0.615205
93 2 0.445285 0.273071 0.689087
87 2 0.240089 0.492445 0.674182
96 2 0.390904 0.486125 0.729847
138 2 0.389529 0.424548 0.717077
66 2 0.562023 0.276632 0.69747
101 2 0.619698 0.292923 0.515832
200 1 0.538902 0.256737 0.547953
69 2 0.539463 0.386968 0.676207
174 1 0.548972 0.298821 0.695339
12 2 0.636698 0.325188 0.541585
78 2 0.663397 0.347605 0.542906
123 2 0.580118 0.410206 0.675551
146 2 0.501594 0.305556 0.511356
155 2 0.713497 0.352144 0.516574
15 2 0.598043 0.461649 0.66152
24 2 0.754697 0.390343 0.679097
102 2 0.685252 0.253636 0.705547
210 1 0.726649 0.24928 0.69463
105 2 0.596358 0.451065 0.667589
147 2 0.491203 0.329291 0.759654
209 1 0.766001 0.250871 0.610832
21 2 0.75147 0.391516 0.565579
132 2 0.825288 0.299051 0.620797
212 1 0.76838 0.480277 0.556332
186 1 0.786637 0.425851 0.650431
32 2 0.194504 0.687091 0.584865
89 2 0.204166 0.714955 0.586727
90 2 0.204678 0.640825 0.651735
95 2 0.406033 0.502963 0.533919
203 1 0.458881 0.520434 0.539019
63 2 0.280266 0.624949 0.690751
6 2 0.378552 0.574045 0.653388
41 2 0.365811 0.54806 0.532423
72 2 0.453955 0.600316 0.660377
98 2 0.428487 0.628838 0.570409
117 2 0.385356 0.673926 0.7499
197 1 0.293074 0.762009 0.601581
149 2 0.450079 0.527663 0.520101
9 2 0.40133 0.712906 0.609128
152 2 0.482029 0.745755 0.577888
33 2 0.270527 0.611119 0.703853
99 2 0.342598 0.655756 0.70519
141 2 0.311712 0.626938 0.716002
176 1 0.493107 0.556148 0.465196
104 2 0.703303 0.531507 0.512794
50 2 0.599968 0.585765 0.527732
107 2 0.663575 0.712597 0.61181
126 2 0.504383 0.630486 0.719288
135 2 0.750282 0.521191 0.7127
158 2 0.655997 0.613844 0.557449
18 2 0.54797 0.690518 0.679448
53 2 0.608389 0.702983 0.587422
189 1 0.653616 0.699663 0.690919
27 2 0.708766 0.658085 0.66486
161 2 0.633668 0.716148 0.569378
108 2 0.559901 0.601904 0.717872
150 2 0.548599 0.579183 0.714061
159 2 0.697877 0.559987 0.716328
54 2 0.571254 0.705575 0.740143
81 2 0.785689 0.625193 0.596267
213 1 0.79007 0.561324 0.740476
35 2 0.205229 0.76546 0.703253
36 2 0.192347 0.848051 0.656865
44 2 0.370445 0.774572 0.589888
143 2 0.308069 0.783166 0.589747
45 2 0.377019 0.772265 0.720042
144 2 0.343795 0.760555 0.700147
206 1 0.492396 0.831616 0.657156
215 1 0.628192 0.790148 0.582162
207 1 0.502897 0.813933 0.654914
216 1 0.682656 0.769051 0.702153
153 2 0.498984 0.81588 0.644672
162 2 0.603953 0.799981 0.748953
195 1 0.203058 0.505674 0.767215
165 1 0.345754 0.3443 0.796828
30 2 0.370837 0.420206 0.755623
39 2 0.421495 0.442363 0.773189
177 1 0.525214 0.472489 0.837829
48 2 0.650123 0.384019 0.834191
156 2 0.725332 0.334815 0.757955
168 1 0.261117 0.513729 0.805759
180 1 0.525732 0.713698 0.823818
204 1 0.465463 0.538276 0.830177
42 2 0.433538 0.579198 0.773407
51 2 0.596492 0.563966 0.789588
171 1 0.231259 0.752279 0.771358
198 1 0.211818 0.770478 0.847422
ITEM: TIMESTEP
200
ITEM: NUMBER OF ATOMS
216
ITEM: BOX BOUNDS pp pp pp
-2.0550000000000002e+00 1.4145001000000001e+01
-2.0550000000000002e+00 1.4145001000000001e+01
-2.0550000000000002e+00 1.4145001000000001e+01
ITEM: ATOMS id type xs ys zs
127 2 0.846263 0.178996 0.160836
121 2 0.574786 0.413716 0.144072
175 1 0.511742 0.422196 0.19301
208 1 0.71945 0.296404 0.240603
202 1 0.482939 0.447999 0.129691
211 1 0.602161 0.530157 0.142649
22 2 0.620744 0.52686 0.196544
187 1 0.692434 0.655091 0.217785
52 2 0.545793 0.717893 0.203756
110 2 0.44833 0.239298 0.343422
199 1 0.43548 0.21053 0.276898
164 1 0.381491 0.192032 0.513824
118 2 0.668896 0.204035 0.326193
172 1 0.563991 0.157568 0.247975
10 2 0.632943 0.194303 0.340531
119 2 0.615511 0.239954 0.374073
173 1 0.549428 0.166803 0.418636
73 2 0.764614 0.212421 0.288908
181 1 0.783705 0.146487 0.387032
19 2 0.758324 0.254203 0.253044
74 2 0.797735 0.227657 0.445788
182 1 0.825687 0.200083 0.302435
20 2 0.7776 0.186049 0.476884
82 2 0.158256 0.338711 0.473276
190 1 0.203027 0.299015 0.317463
55 2 0.306479 0.259138 0.296033
64 2 0.466444 0.334374 0.238919
109 2 0.418499 0.244667 0.356111
58 2 0.295001 0.421252 0.298353
163 1 0.295362 0.293046 0.270755
1 2 0.410646 0.384736 0.289754
67 2 0.47514 0.460272 0.331577
112 2 0.342459 0.445871 0.362492
56 2 0.306428 0.278681 0.43497
65 2 0.467884 0.257993 0.407541
91 2 0.456476 0.317205 0.282319
28 2 0.26905 0.437968 0.287366
59 2 0.269394 0.351844 0.44922
85 2 0.35058 0.465379 0.334646
2 2 0.454419 0.265461 0.422936
37 2 0.468507 0.365839 0.375255
68 2 0.469032 0.439585 0.485801
113 2 0.325028 0.421823 0.384226
136 2 0.349636 0.438814 0.361356
100 2 0.606737 0.309885 0.286461
11 2 0.608162 0.307535 0.358572
46 2 0.628602 0.350163 0.344873
77 2 0.705013 0.399732 0.362267
103 2 0.588392 0.450816 0.367683
122 2 0.542565 0.472697 0.430688
145 2 0.553327 0.41253 0.368278
154 2 0.69592 0.39413 0.289286
47 2 0.643703 0.322435 0.497051
76 2 0.793829 0.393151 0.341796
130 2 0.785597 0.359612 0.299367
184 1 0.834326 0.460231 0.272976
128 2 0.84889 0.260992 0.457502
131 2 0.804895 0.277433 0.456933
185 1 0.84502 0.417583 0.436575
169 1 0.186656 0.710059 0.321205
193 1 0.181657 0.538741 0.247966
31 2 0.205967 0.667344 0.252806
167 1 0.220517 0.578778 0.300345
140 2 0.17542 0.516239 0.47527
61 2 0.320054 0.603397 0.238595
166 1 0.332114 0.529928 0.245003
4 2 0.442031 0.53602 0.259722
70 2 0.474166 0.655591 0.374978
115 2 0.33421 0.653855 0.238216
178 1 0.446126 0.742229 0.304356
94 2 0.46382 0.521213 0.33315
62 2 0.26372 0.62555 0.339569
88 2 0.329434 0.729616 0.416883
5 2 0.322006 0.514356 0.456264
40 2 0.469947 0.643138 0.396449
71 2 0.504016 0.6935 0.396681
97 2 0.298138 0.662052 0.415026
116 2 0.315077 0.707348 0.520935
139 2 0.310223 0.705039 0.411975
196 1 0.307388 0.702902 0.48225
148 2 0.485744 0.592019 0.382182
34 2 0.298968 0.720477 0.445678
8 2 0.287106 0.712698 0.402496
142 2 0.323596 0.698694 0.422839
151 2 0.460067 0.742103 0.326647
13 2 0.547704 0.526059 0.278051
79 2 0.653375 0.582763 0.274719
124 2 0.587229 0.677944 0.316363
16 2 0.640441 0.735283 0.286514
14 2 0.641966 0.537514 0.470476
49 2 0.628075 0.547267 0.237656
80 2 0.66716 0.612665 0.446719
106 2 0.543373 0.675604 0.412675
125 2 0.582495 0.683925 0.356853
23 2 0.657627 0.536664 0.471496
157 2 0.670005 0.508847 0.26839
26 2 0.755805 0.707488 0.428866
133 2 0.820072 0.568559 0.386246
25 2 0.758846 0.674571 0.289522
134 2 0.759131 0.574906 0.330418
188 1 0.794772 0.642605 0.521775
170 1 0.200735 0.715378 0.30961
7 2 0.370263 0.756066 0.248626
205 1 0.388692 0.834779 0.410179
43 2 0.306232 0.802655 0.28918
179 1 0.449763 0.761236 0.319552
214 1 0.730118 0.848179 0.330648
17 2 0.645743 0.755177 0.418486
160 2 0.732939 0.742141 0.444728
201 1 0.41253 0.246729 0.745302
75 2 0.60006 0.246028 0.549244
120 2 0.674595 0.193314 0.641365
129 2 0.848762 0.106651 0.695698
183 1 0.796571 0.203428 0.593281
191 1 0.162682 0.3022 0.548597
29 2 0.20616 0.459474 0.616198
84 2 0.213739 0.378867 0.725189
192 1 0.181714 0.37116 0.733299
57 2 0.349685 0.329536 0.635175
83 2 0.290243 0.34184 0.567663
92 2 0.454882 0.320048 0.544459
111 2 0.356249 0.316621 0.63013
60 2 0.276249 0.378433 0.606359
86 2 0.272142 0.490329 0.546055
3 2 0.398961 0.287055 0.595802
38 2 0.469385 0.427351 0.525322
114 2 0.383696 0.460499 0.71132
137 2 0.323922 0.351376 0.560557
194 1 0.207348 0.484272 0.618817
93 2 0.423248 0.264212 0.68298
87 2 0.222213 0.489956 0.668017
96 2 0.366475 0.482659 0.749954
138 2 0.383419 0.436783 0.728997
66 2 0.575267 0.272861 0.69517
101 2 0.617235 0.292015 0.517543
200 1 0.55115 0.24897 0.573
69 2 0.555827 0.387098 0.682932
174 1 0.547044 0.298216 0.695543
12 2 0.638022 0.329699 0.546568
78 2 0.665539 0.350872 0.544585
123 2 0.571862 0.403154 0.677533
146 2 0.510755 0.297289 0.520285
155 2 0.706569 0.353838 0.521856
15 2 0.60354 0.474349 0.659404
24 2 0.772058 0.385011 0.670864
102 2 0.684131 0.247593 0.695018
210 1 0.726232 0.239306 0.671209
105 2 0.600244 0.453039 0.673286
147 2 0.484215 0.326906 0.777411
209 1 0.768051 0.249877 0.605727
21 2 0.747162 0.389537 0.565545
132 2 0.828873 0.299273 0.620787
212 1 0.767363 0.475171 0.559565
186 1 0.804256 0.406814 0.647065
32 2 0.203745 0.68167 0.589873
89 2 0.201942 0.711942 0.582996
90 2 0.180695 0.63387 0.651653
95 2 0.402399 0.508902 0.539073
203 1 0.46108 0.523894 0.53404
63 2 0.2819 0.634646 0.684015
6 2 0.362158 0.592854 0.634444
41 2 0.366056 0.546717 0.536124
72 2 0.453361 0.608321 0.65485
98 2 0.435096 0.621838 0.578611
117 2 0.396156 0.685468 0.772744
197 1 0.300403 0.746185 0.602131
149 2 0.461465 0.540596 0.523208
9 2 0.422348 0.711938 0.614829
152 2 0.496662 0.752682 0.590074
33 2 0.266644 0.604391 0.702372
99 2 0.343907 0.649905 0.714738
141 2 0.303311 0.606621 0.719313
176 1 0.541401 0.541407 0.494805
104 2 0.698564 0.527627 0.512113
50 2 0.606234 0.587179 0.536512
107 2 0.659026 0.721885 0.611573
126 2 0.50372 0.637929 0.73262
135 2 0.763271 0.520755 0.700795
158 2 0.645932 0.603212 0.565309
18 2 0.545448 0.699456 0.686553
53 2 0.604617 0.704411 0.591594
189 1 0.644197 0.69696 0.700648
27 2 0.708385 0.659334 0.660579
161 2 0.621924 0.715263 0.580629
108 2 0.555141 0.595022 0.734222
150 2 0.540539 0.576877 0.731692
159 2 0.690088 0.558861 0.708
54 2 0.587302 0.707444 0.719879
81 2 0.808972 0.615254 0.581977
213 1 0.782955 0.572643 0.742852
35 2 0.189923 0.759985 0.712448
36 2 0.181244 0.849645 0.643276
44 2 0.381593 0.780438 0.590679
143 2 0.302705 0.78474 0.590993
45 2 0.378991 0.797837 0.738065
144 2 0.345492 0.769672 0.700615
206 1 0.48109 0.863235 0.652889
215 1 0.632042 0.788512 0.591119
207 1 0.503365 0.829092 0.666793
216 1 0.673486 0.789151 0.696128
153 2 0.494529 0.827302 0.642448
162 2 0.578171 0.80092 0.751319
195 1 0.197363 0.532105 0.752376
165 1 0.3702 0.330926 0.860144
30 2 0.395822 0.431422 0.7362
39 2 0.407549 0.455841 0.763607
177 1 0.530156 0.464856 0.83382
48 2 0.662258 0.387209 0.833715
156 2 0.733148 0.339951 0.761987
168 1 0.254342 0.463964 0.850718
180 1 0.563437 0.685099 0.889001
204 1 0.478776 0.522676 0.824559
42 2 0.441546 0.582816 0.778062
51 2 0.588508 0.557466 0.794401
171 1 0.245645 0.744417 0.812239
198 1 0.195814 0.791686 0.847223
ITEM: TIMESTEP
300
ITEM: NUMBER OF ATOMS
216
ITEM: BOX BOUNDS pp pp pp
-2.0550000000000002e+00 1.4145001000000001e+01
-2.0550000000000002e+00 1.4145001000000001e+01
-2.0550000000000002e+00 1.4145001000000001e+01
ITEM: ATOMS id type xs ys zs
127 2 0.845324 0.175328 0.149507
121 2 0.570834 0.401883 0.13023
175 1 0.584564 0.399919 0.17668
208 1 0.712691 0.295773 0.238943
202 1 0.487331 0.447342 0.134159
211 1 0.575965 0.583145 0.119443
22 2 0.613764 0.512493 0.186148
187 1 0.692083 0.655931 0.205223
52 2 0.524819 0.689684 0.179649
110 2 0.449878 0.241033 0.346179
199 1 0.447991 0.205016 0.26451
164 1 0.385408 0.183686 0.535857
118 2 0.670263 0.206736 0.330153
172 1 0.561998 0.169338 0.25625
10 2 0.640799 0.20019 0.33246
119 2 0.634313 0.223355 0.384445
173 1 0.555776 0.157265 0.416193
73 2 0.757765 0.216878 0.296662
181 1 0.757909 0.146637 0.389956
19 2 0.759749 0.258821 0.241783
74 2 0.798451 0.228605 0.44895
182 1 0.822099 0.200331 0.290363
20 2 0.767701 0.179551 0.483542
82 2 0.156182 0.331774 0.476736
190 1 0.194731 0.299383 0.311833
55 2 0.317048 0.25273 0.295982
64 2 0.471703 0.335268 0.228386
109 2 0.431591 0.239818 0.365537
58 2 0.298401 0.402305 0.309435
163 1 0.314362 0.288408 0.280404
1 2 0.401927 0.395345 0.27801
67 2 0.45746 0.479903 0.327605
112 2 0.336243 0.452561 0.354103
56 2 0.295861 0.271699 0.429935
65 2 0.468725 0.249991 0.390823
91 2 0.468584 0.308283 0.271708
28 2 0.257232 0.450113 0.290028
59 2 0.265933 0.350829 0.443273
85 2 0.356887 0.449006 0.354445
2 2 0.449285 0.258278 0.415285
37 2 0.471622 0.379716 0.402511
68 2 0.461694 0.444842 0.481964
113 2 0.334847 0.412266 0.37251
136 2 0.3561 0.444398 0.363079
100 2 0.612366 0.315122 0.292412
11 2 0.612795 0.332932 0.358999
46 2 0.628864 0.352631 0.337819
77 2 0.69486 0.403527 0.350418
103 2 0.57927 0.447384 0.373474
122 2 0.5491 0.478629 0.436154
145 2 0.553724 0.405459 0.364427
154 2 0.693201 0.396601 0.29456
47 2 0.639635 0.3127 0.500364
76 2 0.793623 0.386779 0.341914
130 2 0.802804 0.352561 0.307924
184 1 0.822426 0.453274 0.248265
128 2 0.856997 0.251315 0.455941
131 2 0.80801 0.279255 0.466066
185 1 0.845986 0.411744 0.450719
169 1 0.197176 0.692342 0.313499
193 1 0.181305 0.575731 0.224848
31 2 0.22204 0.651839 0.227729
167 1 0.228306 0.553434 0.279908
140 2 0.170335 0.512649 0.463025
61 2 0.334121 0.606053 0.22787
166 1 0.330115 0.540202 0.250079
4 2 0.421879 0.532878 0.258845
70 2 0.478596 0.673138 0.389141
115 2 0.345623 0.643438 0.225812
178 1 0.447101 0.753553 0.30556
94 2 0.467582 0.516586 0.339875
62 2 0.266213 0.628232 0.337284
88 2 0.335491 0.724166 0.421382
5 2 0.317419 0.534948 0.468952
40 2 0.47216 0.653776 0.394442
71 2 0.500112 0.698719 0.392174
97 2 0.296256 0.637455 0.41252
116 2 0.317282 0.728396 0.532202
139 2 0.311451 0.701264 0.42293
196 1 0.325868 0.68793 0.492559
148 2 0.488637 0.604003 0.383494
34 2 0.290531 0.728523 0.44419
8 2 0.281651 0.706006 0.400383
142 2 0.335832 0.70288 0.431084
151 2 0.460767 0.744004 0.320976
13 2 0.547265 0.527279 0.271851
79 2 0.646259 0.586166 0.272774
124 2 0.591387 0.667265 0.325691
16 2 0.649639 0.714793 0.274706
14 2 0.625492 0.53603 0.4613
49 2 0.616111 0.5571 0.211702
80 2 0.653046 0.606847 0.456403
106 2 0.523598 0.685554 0.422473
125 2 0.587331 0.670368 0.337554
23 2 0.660128 0.537259 0.471752
157 2 0.660911 0.517467 0.24221
26 2 0.760371 0.699814 0.422185
133 2 0.837025 0.558193 0.408196
25 2 0.760475 0.651862 0.307765
134 2 0.768344 0.57242 0.317995
188 1 0.811687 0.62771 0.553053
170 1 0.219632 0.701171 0.300448
7 2 0.366713 0.764774 0.268776
205 1 0.372465 0.849217 0.403125
43 2 0.308007 0.801471 0.291929
179 1 0.448874 0.762215 0.313736
214 1 0.72353 0.840931 0.330968
17 2 0.65785 0.744388 0.42754
160 2 0.728597 0.731912 0.453295
201 1 0.38311 0.250183 0.752289
75 2 0.591716 0.249898 0.546744
120 2 0.693773 0.191267 0.639263
129 2 0.853204 0.0864986 0.698819
183 1 0.825777 0.189442 0.59289
191 1 0.157773 0.299653 0.540775
29 2 0.19709 0.457885 0.61684
84 2 0.208646 0.377895 0.720693
192 1 0.194847 0.388794 0.747628
57 2 0.353344 0.345613 0.632263
83 2 0.295058 0.342509 0.569668
92 2 0.453515 0.318056 0.554139
111 2 0.36416 0.32708 0.625999
60 2 0.269374 0.383728 0.61708
86 2 0.262554 0.488512 0.546064
3 2 0.409638 0.255854 0.584634
38 2 0.469835 0.441132 0.53599
114 2 0.381371 0.461031 0.706097
137 2 0.329226 0.374498 0.531106
194 1 0.187125 0.488239 0.627652
93 2 0.396718 0.258975 0.689577
87 2 0.21642 0.492548 0.652928
96 2 0.368536 0.484436 0.767485
138 2 0.364638 0.449778 0.723061
66 2 0.581839 0.26379 0.697985
101 2 0.625644 0.296123 0.509999
200 1 0.584229 0.245221 0.632506
69 2 0.571405 0.387581 0.682152
174 1 0.553053 0.294585 0.690445
12 2 0.650554 0.34493 0.541753
78 2 0.658734 0.351218 0.541062
123 2 0.579718 0.397267 0.679088
146 2 0.514842 0.29932 0.526553
155 2 0.705927 0.36237 0.513476
15 2 0.60471 0.480959 0.657966
24 2 0.784878 0.37157 0.664098
102 2 0.680335 0.230631 0.679987
210 1 0.729475 0.22939 0.648157
105 2 0.599385 0.446884 0.676542
147 2 0.485218 0.323768 0.774884
209 1 0.746076 0.237981 0.599778
21 2 0.741357 0.393316 0.557933
132 2 0.833732 0.301509 0.619076
212 1 0.761206 0.44645 0.535159
186 1 0.821439 0.383053 0.629814
32 2 0.206914 0.672417 0.597343
89 2 0.20697 0.71324 0.584882
90 2 0.159499 0.639496 0.638181
95 2 0.403451 0.51134 0.544667
203 1 0.474295 0.510396 0.5541
63 2 0.290548 0.6405 0.688584
6 2 0.341387 0.603237 0.615064
41 2 0.357726 0.545875 0.536398
72 2 0.448408 0.614756 0.654538
98 2 0.433231 0.625933 0.595348
117 2 0.414939 0.691239 0.796735
197 1 0.292575 0.755905 0.613965
149 2 0.456565 0.535895 0.533913
9 2 0.424759 0.727845 0.619691
152 2 0.509631 0.758385 0.602384
33 2 0.273241 0.609093 0.701347
99 2 0.351522 0.656752 0.721404
141 2 0.294458 0.602115 0.718134
176 1 0.524711 0.549877 0.469805
104 2 0.697177 0.524378 0.512552
50 2 0.60562 0.587613 0.540702
107 2 0.645098 0.734648 0.619083
126 2 0.504149 0.636452 0.756702
135 2 0.77128 0.529176 0.689195
158 2 0.649747 0.615099 0.573161
18 2 0.54365 0.70223 0.686147
53 2 0.603786 0.705023 0.586812
189 1 0.645319 0.694717 0.718854
27 2 0.707225 0.658926 0.669202
161 2 0.614786 0.710504 0.580226
108 2 0.555086 0.587974 0.748404
150 2 0.544373 0.575502 0.749625
159 2 0.696126 0.564268 0.702817
54 2 0.604107 0.707121 0.709224
81 2 0.820058 0.592562 0.574649
213 1 0.791154 0.558761 0.726896
35 2 0.178833 0.759244 0.723866
36 2 0.17841 0.846672 0.623394
44 2 0.381178 0.803439 0.588571
143 2 0.296838 0.780454 0.596682
45 2 0.353535 0.80364 0.742969
144 2 0.337938 0.78771 0.705613
206 1 0.460954 0.875166 0.656023
215 1 0.630876 0.806202 0.575695
207 1 0.507975 0.840216 0.670567
216 1 0.638891 0.82518 0.681906
153 2 0.488232 0.827013 0.633997
162 2 0.557483 0.809421 0.780703
195 1 0.183251 0.530299 0.745676
165 1 0.37819 0.320702 0.875918
30 2 0.384967 0.421588 0.733816
39 2 0.400628 0.466022 0.779712
177 1 0.541372 0.448708 0.843346
48 2 0.680023 0.389065 0.829088
156 2 0.746207 0.34627 0.760246
168 1 0.271436 0.413356 0.870031
180 1 0.556411 0.685636 0.872302
204 1 0.498204 0.539532 0.823691
42 2 0.434876 0.593663 0.785117
51 2 0.578576 0.566717 0.791762
171 1 0.291022 0.727014 0.850324
198 1 0.170206 0.825162 0.852155
ITEM: TIMESTEP
400
ITEM: NUMBER OF ATOMS
216
ITEM: BOX BOUNDS pp pp pp
-2.0550000000000002e+00 1.4145001000000001e+01
-2.0550000000000002e+00 1.4145001000000001e+01
-2.0550000000000002e+00 1.4145001000000001e+01
ITEM: ATOMS id type xs ys zs
127 2 0.844607 0.171353 0.137695
121 2 0.57794 0.389604 0.123196
175 1 0.623648 0.379843 0.140023
208 1 0.715512 0.304003 0.224643
202 1 0.451616 0.457631 0.128491
211 1 0.612144 0.55594 0.138626
22 2 0.612523 0.486915 0.185191
187 1 0.693085 0.663698 0.209898
52 2 0.498401 0.700166 0.168922
110 2 0.460591 0.239781 0.356886
199 1 0.452325 0.1951 0.253276
164 1 0.390683 0.187115 0.551849
118 2 0.673652 0.206255 0.332702
172 1 0.563345 0.173682 0.243004
10 2 0.643851 0.204417 0.335541
119 2 0.643846 0.219628 0.379402
173 1 0.568438 0.147074 0.427716
73 2 0.749804 0.225625 0.308858
181 1 0.785457 0.138686 0.388848
19 2 0.760393 0.260761 0.246474
74 2 0.795488 0.227375 0.455695
182 1 0.820178 0.200894 0.275888
20 2 0.760782 0.160886 0.488024
82 2 0.152333 0.328492 0.476699
190 1 0.19706 0.286289 0.322568
55 2 0.309154 0.231667 0.280121
64 2 0.465963 0.328167 0.219613
109 2 0.441123 0.229651 0.384542
58 2 0.296047 0.403039 0.318884
163 1 0.327845 0.283163 0.275233
1 2 0.394628 0.410075 0.278421