ITEM: TIMESTEP
0
ITEM: NUMBER OF ATOMS
192
ITEM: BOX BOUNDS pp pp pp
-5.1810099999999997e+00 1.3918990000000001e+01
-5.1810099999999997e+00 1.3918990000000001e+01
-1.6228500000000000e+01 4.5771500000000003e+01
ITEM: ATOMS id type xs ys zs
1 2 0.271257 0.271257 0.28525
2 2 0.271257 0.271257 0.53525
9 2 0.271257 0.271257 0.41025
10 2 0.271257 0.271257 0.66025
17 2 0.271257 0.271257 0.36325
18 2 0.271257 0.271257 0.61325
25 2 0.271257 0.271257 0.48825
26 2 0.271257 0.271257 0.73825
97 1 0.312201 0.353144 0.32425
98 1 0.312201 0.353144 0.57425
137 1 0.353144 0.312201 0.44925
138 1 0.353144 0.312201 0.69925
145 1 0.395864 0.271257 0.26175
146 1 0.395864 0.271257 0.51175
153 1 0.395864 0.395864 0.38675
154 1 0.395864 0.395864 0.63675
161 1 0.271257 0.395864 0.26175
162 1 0.271257 0.395864 0.51175
169 1 0.395864 0.271257 0.38675
170 1 0.395864 0.271257 0.63675
177 1 0.395864 0.395864 0.26175
178 1 0.395864 0.395864 0.51175
185 1 0.271257 0.395864 0.38675
186 1 0.271257 0.395864 0.63675
5 2 0.520472 0.271257 0.28525
6 2 0.520472 0.271257 0.53525
13 2 0.520472 0.271257 0.41025
14 2 0.520472 0.271257 0.66025
21 2 0.520472 0.271257 0.36325
22 2 0.520472 0.271257 0.61325
29 2 0.520472 0.271257 0.48825
30 2 0.520472 0.271257 0.73825
41 2 0.4374 0.354329 0.3478
42 2 0.4374 0.354329 0.5978
57 2 0.4374 0.354329 0.3007
58 2 0.4374 0.354329 0.5507
73 1 0.4374 0.354329 0.418035
74 1 0.4374 0.354329 0.668035
89 1 0.4374 0.354329 0.480465
90 1 0.4374 0.354329 0.730465
101 1 0.561415 0.353144 0.32425
102 1 0.561415 0.353144 0.57425
105 1 0.479528 0.312201 0.44925
106 1 0.479528 0.312201 0.69925
165 1 0.520472 0.395864 0.26175
166 1 0.520472 0.395864 0.51175
189 1 0.520472 0.395864 0.38675
190 1 0.520472 0.395864 0.63675
45 2 0.686615 0.354329 0.3478
46 2 0.686615 0.354329 0.5978
61 2 0.686615 0.354329 0.3007
62 2 0.686615 0.354329 0.5507
77 1 0.686615 0.354329 0.418035
78 1 0.686615 0.354329 0.668035
93 1 0.686615 0.354329 0.480465
94 1 0.686615 0.354329 0.730465
109 1 0.728743 0.312201 0.44925
110 1 0.728743 0.312201 0.69925
141 1 0.602359 0.312201 0.44925
142 1 0.602359 0.312201 0.69925
149 1 0.645079 0.271257 0.26175
150 1 0.645079 0.271257 0.51175
157 1 0.645079 0.395864 0.38675
158 1 0.645079 0.395864 0.63675
173 1 0.645079 0.271257 0.38675
174 1 0.645079 0.271257 0.63675
181 1 0.645079 0.395864 0.26175
182 1 0.645079 0.395864 0.51175
3 2 0.271257 0.520472 0.28525
4 2 0.271257 0.520472 0.53525
11 2 0.271257 0.520472 0.41025
12 2 0.271257 0.520472 0.66025
19 2 0.271257 0.520472 0.36325
20 2 0.271257 0.520472 0.61325
27 2 0.271257 0.520472 0.48825
28 2 0.271257 0.520472 0.73825
33 2 0.354329 0.4374 0.4728
34 2 0.354329 0.4374 0.7228
49 2 0.354329 0.4374 0.4257
50 2 0.354329 0.4374 0.6757
65 1 0.354329 0.4374 0.293035
66 1 0.354329 0.4374 0.543035
81 1 0.354329 0.4374 0.355465
82 1 0.354329 0.4374 0.605465
129 1 0.312201 0.479528 0.32425
130 1 0.312201 0.479528 0.57425
139 1 0.353144 0.561415 0.44925
140 1 0.353144 0.561415 0.69925
147 1 0.395864 0.520472 0.26175
148 1 0.395864 0.520472 0.51175
171 1 0.395864 0.520472 0.38675
172 1 0.395864 0.520472 0.63675
7 2 0.520472 0.520472 0.28525
8 2 0.520472 0.520472 0.53525
15 2 0.520472 0.520472 0.41025
16 2 0.520472 0.520472 0.66025
23 2 0.520472 0.520472 0.36325
24 2 0.520472 0.520472 0.61325
31 2 0.520472 0.520472 0.48825
32 2 0.520472 0.520472 0.73825
107 1 0.479528 0.561415 0.44925
108 1 0.479528 0.561415 0.69925
113 1 0.438585 0.479528 0.32425
114 1 0.438585 0.479528 0.57425
121 1 0.479528 0.438585 0.44925
122 1 0.479528 0.438585 0.69925
133 1 0.561415 0.479528 0.32425
134 1 0.561415 0.479528 0.57425
37 2 0.603543 0.4374 0.4728
38 2 0.603543 0.4374 0.7228
53 2 0.603543 0.4374 0.4257
54 2 0.603543 0.4374 0.6757
69 1 0.603543 0.4374 0.293035
70 1 0.603543 0.4374 0.543035
85 1 0.603543 0.4374 0.355465
86 1 0.603543 0.4374 0.605465
111 1 0.728743 0.561415 0.44925
112 1 0.728743 0.561415 0.69925
117 1 0.687799 0.479528 0.32425
118 1 0.687799 0.479528 0.57425
125 1 0.728743 0.438585 0.44925
126 1 0.728743 0.438585 0.69925
143 1 0.602359 0.561415 0.44925
144 1 0.602359 0.561415 0.69925
151 1 0.645079 0.520472 0.26175
152 1 0.645079 0.520472 0.51175
175 1 0.645079 0.520472 0.38675
176 1 0.645079 0.520472 0.63675
35 2 0.354329 0.686615 0.4728
36 2 0.354329 0.686615 0.7228
51 2 0.354329 0.686615 0.4257
52 2 0.354329 0.686615 0.6757
67 1 0.354329 0.686615 0.293035
68 1 0.354329 0.686615 0.543035
83 1 0.354329 0.686615 0.355465
84 1 0.354329 0.686615 0.605465
99 1 0.312201 0.602359 0.32425
100 1 0.312201 0.602359 0.57425
131 1 0.312201 0.728743 0.32425
132 1 0.312201 0.728743 0.57425
155 1 0.395864 0.645079 0.38675
156 1 0.395864 0.645079 0.63675
163 1 0.271257 0.645079 0.26175
164 1 0.271257 0.645079 0.51175
179 1 0.395864 0.645079 0.26175
180 1 0.395864 0.645079 0.51175
187 1 0.271257 0.645079 0.38675
188 1 0.271257 0.645079 0.63675
43 2 0.4374 0.603543 0.3478
44 2 0.4374 0.603543 0.5978
59 2 0.4374 0.603543 0.3007
60 2 0.4374 0.603543 0.5507
75 1 0.4374 0.603543 0.418035
76 1 0.4374 0.603543 0.668035
91 1 0.4374 0.603543 0.480465
92 1 0.4374 0.603543 0.730465
103 1 0.561415 0.602359 0.32425
104 1 0.561415 0.602359 0.57425
115 1 0.438585 0.728743 0.32425
116 1 0.438585 0.728743 0.57425
123 1 0.479528 0.687799 0.44925
124 1 0.479528 0.687799 0.69925
135 1 0.561415 0.728743 0.32425
136 1 0.561415 0.728743 0.57425
167 1 0.520472 0.645079 0.26175
168 1 0.520472 0.645079 0.51175
191 1 0.520472 0.645079 0.38675
192 1 0.520472 0.645079 0.63675
39 2 0.603543 0.686615 0.4728
40 2 0.603543 0.686615 0.7228
47 2 0.686615 0.603543 0.3478
48 2 0.686615 0.603543 0.5978
55 2 0.603543 0.686615 0.4257
56 2 0.603543 0.686615 0.6757
63 2 0.686615 0.603543 0.3007
64 2 0.686615 0.603543 0.5507
71 1 0.603543 0.686615 0.293035
72 1 0.603543 0.686615 0.543035
79 1 0.686615 0.603543 0.418035
80 1 0.686615 0.603543 0.668035
87 1 0.603543 0.686615 0.355465
88 1 0.603543 0.686615 0.605465
95 1 0.686615 0.603543 0.480465
96 1 0.686615 0.603543 0.730465
119 1 0.687799 0.728743 0.32425
120 1 0.687799 0.728743 0.57425
127 1 0.728743 0.687799 0.44925
128 1 0.728743 0.687799 0.69925
159 1 0.645079 0.645079 0.38675
160 1 0.645079 0.645079 0.63675
183 1 0.645079 0.645079 0.26175
184 1 0.645079 0.645079 0.51175
ITEM: TIMESTEP
100
ITEM: NUMBER OF ATOMS
192
ITEM: BOX BOUNDS pp pp pp
-5.1810099999999997e+00 1.3918990000000001e+01
-5.1810099999999997e+00 1.3918990000000001e+01
-1.6228500000000000e+01 4.5771500000000003e+01
ITEM: ATOMS id type xs ys zs
1 2 0.380394 0.371939 0.272561
2 2 0.340238 0.364316 0.530913
9 2 0.380553 0.336949 0.402708
10 2 0.376793 0.340555 0.661281
17 2 0.325369 0.364562 0.358153
18 2 0.332027 0.358717 0.615063
25 2 0.374163 0.327113 0.484387
26 2 0.307357 0.330912 0.740527
97 1 0.375283 0.385139 0.316746
98 1 0.361798 0.344605 0.572461
137 1 0.364743 0.363234 0.443336
138 1 0.336518 0.362262 0.701719
145 1 0.442565 0.26241 0.271432
146 1 0.41612 0.261495 0.51847
153 1 0.397991 0.459912 0.379802
154 1 0.416202 0.442315 0.635394
161 1 0.265921 0.368195 0.260782
162 1 0.270403 0.403987 0.499534
169 1 0.423182 0.271234 0.37033
170 1 0.419235 0.268608 0.629002
177 1 0.476112 0.412904 0.249108
178 1 0.430277 0.459433 0.517528
185 1 0.268656 0.408605 0.391851
186 1 0.278355 0.418315 0.647961
5 2 0.557394 0.318299 0.266382
6 2 0.546741 0.31206 0.521343
13 2 0.625216 0.331341 0.413347
14 2 0.645215 0.3114 0.662846
21 2 0.555561 0.301031 0.372644
22 2 0.545433 0.312374 0.626204
29 2 0.634667 0.335333 0.482206
30 2 0.610125 0.292806 0.710114
41 2 0.467738 0.413446 0.349544
42 2 0.468101 0.39856 0.59613
57 2 0.502194 0.420775 0.301424
58 2 0.466156 0.420656 0.548871
73 1 0.47656 0.385595 0.42694
74 1 0.508953 0.370518 0.66057
89 1 0.500556 0.356527 0.484111
90 1 0.406032 0.287354 0.722319
101 1 0.555391 0.321575 0.328541
102 1 0.553077 0.308138 0.568812
105 1 0.436324 0.269784 0.454968
106 1 0.429378 0.291703 0.694015
165 1 0.511998 0.384605 0.237317
166 1 0.447359 0.402613 0.508885
189 1 0.510951 0.33753 0.410043
190 1 0.534255 0.437856 0.611117
45 2 0.679119 0.298111 0.343022
46 2 0.657332 0.292501 0.595291
61 2 0.649328 0.355262 0.301286
62 2 0.671664 0.295142 0.550417
77 1 0.742542 0.318692 0.425195
78 1 0.720697 0.331171 0.695217
93 1 0.760528 0.328556 0.480406
94 1 0.70474 0.335678 0.734211
109 1 0.745908 0.278775 0.448791
110 1 0.734321 0.323164 0.707771
141 1 0.670395 0.363838 0.454637
142 1 0.61181 0.319624 0.712827
149 1 0.633204 0.234061 0.254336
150 1 0.637813 0.230982 0.506949
157 1 0.633448 0.40993 0.37384
158 1 0.636049 0.416092 0.635348
173 1 0.637453 0.223356 0.392154
174 1 0.629115 0.218014 0.636207
181 1 0.596799 0.445061 0.270628
182 1 0.638897 0.41548 0.523243
3 2 0.32138 0.622261 0.276421
4 2 0.338832 0.62726 0.546917
11 2 0.286451 0.546289 0.393685
12 2 0.323755 0.549326 0.643656
19 2 0.350856 0.636084 0.358522
20 2 0.318231 0.629026 0.599688
27 2 0.318322 0.528758 0.5078
28 2 0.368416 0.605537 0.747257
33 2 0.396218 0.476044 0.467504
34 2 0.388678 0.457809 0.732222
49 2 0.398984 0.4783 0.419624
50 2 0.426064 0.469378 0.685458
65 1 0.359316 0.481292 0.293402
66 1 0.282437 0.427249 0.559851
81 1 0.254578 0.471538 0.361485
82 1 0.346078 0.486537 0.609444
129 1 0.261688 0.410184 0.328011
130 1 0.279645 0.422076 0.584122
139 1 0.299872 0.5399 0.441742
140 1 0.343747 0.569181 0.706629
147 1 0.410348 0.463174 0.246747
148 1 0.384314 0.493072 0.538739
171 1 0.374031 0.486922 0.368437
172 1 0.404701 0.462891 0.62962
7 2 0.49426 0.53581 0.266104
8 2 0.494475 0.56741 0.537045
15 2 0.544682 0.466053 0.400857
16 2 0.543082 0.504002 0.645762
23 2 0.489405 0.56295 0.363877
24 2 0.461072 0.558225 0.606666
31 2 0.553426 0.473546 0.497593
32 2 0.500778 0.518558 0.7604
107 1 0.506527 0.493958 0.443719
108 1 0.515058 0.505982 0.720062
113 1 0.336993 0.503798 0.333582
114 1 0.351001 0.518849 0.573571
121 1 0.550757 0.317136 0.448373
122 1 0.495229 0.37065 0.715971
133 1 0.53111 0.516525 0.330596
134 1 0.576873 0.428002 0.572799
37 2 0.707389 0.473063 0.477613
38 2 0.609364 0.428756 0.737444
53 2 0.68842 0.467074 0.429324
54 2 0.583305 0.435428 0.688573
69 1 0.632954 0.386391 0.300809
70 1 0.603791 0.400262 0.547545
85 1 0.605152 0.408056 0.353103
86 1 0.601515 0.386411 0.595841
111 1 0.712459 0.573716 0.451918
112 1 0.742584 0.621325 0.704403
117 1 0.70375 0.4287 0.33248
118 1 0.696124 0.411499 0.572719
125 1 0.785859 0.396752 0.450375
126 1 0.72287 0.438102 0.71466
143 1 0.593949 0.527681 0.452559
144 1 0.656408 0.539075 0.703003
151 1 0.654044 0.493747 0.252131
152 1 0.658182 0.42446 0.514807
175 1 0.650576 0.431839 0.382614
176 1 0.666059 0.479595 0.64369
35 2 0.336168 0.624465 0.471851
36 2 0.394371 0.69672 0.712096
51 2 0.296567 0.661129 0.428429
52 2 0.310005 0.655948 0.676126
67 1 0.307831 0.72365 0.297084
68 1 0.316563 0.752235 0.546052
83 1 0.33111 0.749828 0.343155
84 1 0.299103 0.750364 0.596806
99 1 0.329505 0.647353 0.32517
100 1 0.372969 0.643065 0.585415
131 1 0.287954 0.753089 0.317244
132 1 0.289358 0.720378 0.57329
155 1 0.414926 0.595646 0.396088
156 1 0.403134 0.650327 0.63485
163 1 0.233627 0.681397 0.258894
164 1 0.237188 0.62147 0.521691
179 1 0.401253 0.604266 0.24871
180 1 0.419567 0.621011 0.508678
187 1 0.242263 0.659453 0.379419
188 1 0.227832 0.629193 0.630705
43 2 0.472337 0.704844 0.333507
44 2 0.453158 0.719376 0.606625
59 2 0.428546 0.573916 0.310719
60 2 0.466917 0.707364 0.559679
75 1 0.388971 0.612943 0.418553
76 1 0.404967 0.592497 0.673845
91 1 0.368901 0.608292 0.470575
92 1 0.431042 0.672229 0.709604
103 1 0.561638 0.61625 0.31753
104 1 0.544664 0.587522 0.57322
115 1 0.39777 0.78429 0.312891
116 1 0.380909 0.797552 0.574773
123 1 0.423403 0.685858 0.445848
124 1 0.439575 0.701893 0.670662
135 1 0.596437 0.730033 0.326494
136 1 0.564823 0.712497 0.585199
167 1 0.492955 0.64986 0.251223
168 1 0.43805 0.663397 0.5171
191 1 0.446856 0.668896 0.383366
192 1 0.453192 0.58541 0.646318
39 2 0.497868 0.60265 0.473152
40 2 0.523214 0.646669 0.736748
47 2 0.637761 0.533918 0.350728
48 2 0.629887 0.512885 0.599498
55 2 0.517026 0.607285 0.424751
56 2 0.528778 0.605305 0.689992
63 2 0.64041 0.517179 0.302081
64 2 0.646617 0.520164 0.550418
71 1 0.496575 0.656162 0.287037
72 1 0.583986 0.665465 0.54709
79 1 0.626072 0.575399 0.41968
80 1 0.655797 0.513606 0.664903
87 1 0.581543 0.65775 0.352532
88 1 0.564358 0.652616 0.604458
95 1 0.633217 0.578587 0.483893
96 1 0.610986 0.562735 0.738412
119 1 0.676833 0.634331 0.328414
120 1 0.654389 0.628926 0.577537
127 1 0.612897 0.648376 0.451605
128 1 0.629681 0.654854 0.712726
159 1 0.597912 0.579972 0.386131
160 1 0.51032 0.638901 0.635521
183 1 0.596951 0.566093 0.247934
184 1 0.586724 0.597126 0.510181
ITEM: TIMESTEP
200
ITEM: NUMBER OF ATOMS
192
ITEM: BOX BOUNDS pp pp pp
-5.1810099999999997e+00 1.3918990000000001e+01
-5.1810099999999997e+00 1.3918990000000001e+01
-1.6228500000000000e+01 4.5771500000000003e+01
ITEM: ATOMS id type xs ys zs
1 2 0.391549 0.365471 0.273824
2 2 0.341591 0.36505 0.53111
9 2 0.38971 0.34262 0.401007
10 2 0.377235 0.347612 0.6616
17 2 0.327852 0.369742 0.357762
18 2 0.338362 0.361299 0.614821
25 2 0.376998 0.330786 0.483901
26 2 0.310452 0.3384 0.739993
97 1 0.377784 0.396848 0.318042
98 1 0.368477 0.34511 0.572973
137 1 0.367355 0.366985 0.442053
138 1 0.335821 0.374293 0.701145
145 1 0.443002 0.249006 0.272943
146 1 0.418054 0.264883 0.517466
153 1 0.391162 0.469091 0.379423
154 1 0.413995 0.450921 0.634993
161 1 0.276492 0.36013 0.26235
162 1 0.268549 0.398432 0.499593
169 1 0.418068 0.266768 0.369911
170 1 0.421665 0.270205 0.631255
177 1 0.47098 0.42202 0.247994
178 1 0.438184 0.452926 0.518832
185 1 0.272551 0.408038 0.392152
186 1 0.276284 0.419795 0.647183
5 2 0.544867 0.325612 0.266011
6 2 0.545195 0.324647 0.519238
13 2 0.633589 0.331758 0.411126
14 2 0.658075 0.315346 0.662627
21 2 0.552605 0.287407 0.372201
22 2 0.550181 0.30844 0.628842
29 2 0.635238 0.335346 0.479233
30 2 0.612782 0.29105 0.709136
41 2 0.472874 0.413046 0.353103
42 2 0.48323 0.388305 0.596451
57 2 0.505764 0.425135 0.304416
58 2 0.461283 0.427575 0.550483
73 1 0.482578 0.387296 0.426254
74 1 0.507414 0.384102 0.660017
89 1 0.501236 0.364996 0.479289
90 1 0.40545 0.294558 0.720195
101 1 0.551022 0.318981 0.329184
102 1 0.549017 0.307781 0.566477
105 1 0.435842 0.273665 0.453487
106 1 0.425543 0.297722 0.694829
165 1 0.520522 0.389141 0.235238
166 1 0.43984 0.418532 0.507711
189 1 0.518646 0.339567 0.408571
190 1 0.523204 0.431748 0.612316
45 2 0.674112 0.286245 0.341691
46 2 0.648507 0.310785 0.594366
61 2 0.644304 0.351716 0.301274
62 2 0.66662 0.281509 0.5494
77 1 0.744088 0.321326 0.428005
78 1 0.72646 0.335017 0.697454
93 1 0.762186 0.326998 0.480297
94 1 0.707566 0.331923 0.73304
109 1 0.740271 0.287004 0.463659
110 1 0.734395 0.326322 0.709687
141 1 0.666949 0.372143 0.45599
142 1 0.612743 0.317264 0.71287
149 1 0.6236 0.242304 0.253388
150 1 0.632347 0.2353 0.505362
157 1 0.636563 0.397322 0.375456
158 1 0.643613 0.413604 0.633328
173 1 0.634597 0.215887 0.393166
174 1 0.628196 0.212204 0.639448
181 1 0.595785 0.448622 0.272166
182 1 0.639433 0.418791 0.52529
3 2 0.361701 0.642294 0.273668
4 2 0.339633 0.628391 0.545103
11 2 0.284517 0.546116 0.393491
12 2 0.310505 0.550695 0.641387
19 2 0.35245 0.637426 0.359075
20 2 0.322687 0.629168 0.596849
27 2 0.3234 0.520444 0.507976
28 2 0.370927 0.611503 0.746925
33 2 0.395607 0.476512 0.466251
34 2 0.389109 0.464913 0.730903
49 2 0.401782 0.48614 0.418485
50 2 0.437377 0.47123 0.68371
65 1 0.358842 0.4818 0.290891
66 1 0.276834 0.415669 0.561105
81 1 0.245983 0.468961 0.362347
82 1 0.343215 0.487613 0.606869
129 1 0.259278 0.404451 0.327007
130 1 0.27941 0.417039 0.584135
139 1 0.291966 0.534264 0.441389
140 1 0.330837 0.575292 0.708749
147 1 0.419627 0.452822 0.24631
148 1 0.391508 0.493422 0.539207
171 1 0.371563 0.495273 0.366099
172 1 0.403285 0.463698 0.632383
7 2 0.483305 0.539916 0.266768
8 2 0.499522 0.568744 0.537191
15 2 0.553051 0.468737 0.400627
16 2 0.550185 0.50337 0.645745
23 2 0.490828 0.564814 0.36583
24 2 0.461228 0.553177 0.607685
31 2 0.553272 0.478783 0.49767
32 2 0.501765 0.516084 0.759969
107 1 0.509626 0.491504 0.444474
108 1 0.519606 0.503189 0.720481
113 1 0.317065 0.511131 0.332716
114 1 0.334699 0.51925 0.570735
121 1 0.554738 0.313836 0.446116
122 1 0.498379 0.373946 0.715057
133 1 0.533377 0.528359 0.334277
134 1 0.584403 0.424045 0.569734
37 2 0.707769 0.478841 0.481449
38 2 0.60623 0.418228 0.739713
53 2 0.68628 0.472184 0.432334
54 2 0.592975 0.436765 0.689279
69 1 0.631089 0.382134 0.301389
70 1 0.598056 0.408787 0.54625
85 1 0.608073 0.397099 0.354844
86 1 0.617765 0.37462 0.594113
111 1 0.706526 0.578634 0.455537
112 1 0.743755 0.629473 0.704083
117 1 0.703509 0.416923 0.332963
118 1 0.701102 0.398319 0.565371
125 1 0.784861 0.402323 0.453015
126 1 0.717233 0.44155 0.716573
143 1 0.589054 0.529916 0.453861
144 1 0.660904 0.545187 0.701662
151 1 0.660614 0.485632 0.247524
152 1 0.651173 0.407524 0.515952
175 1 0.657823 0.420605 0.381862
176 1 0.67341 0.478311 0.648137
35 2 0.333354 0.617376 0.470988
36 2 0.399505 0.693187 0.708788
51 2 0.292698 0.656313 0.428365
52 2 0.306943 0.650484 0.674979
67 1 0.314244 0.726848 0.297838
68 1 0.324013 0.755077 0.545
83 1 0.330728 0.752997 0.34622
84 1 0.301719 0.750326 0.596237
99 1 0.326014 0.650897 0.326642
100 1 0.369624 0.642257 0.588566
131 1 0.284316 0.750686 0.312912
132 1 0.292722 0.721574 0.570359
155 1 0.412486 0.604865 0.396757
156 1 0.397611 0.644371 0.633226
163 1 0.247244 0.669891 0.261224
164 1 0.23784 0.610969 0.521382
179 1 0.40468 0.597304 0.239617
180 1 0.416675 0.626387 0.511024
187 1 0.240349 0.658159 0.377732
188 1 0.22634 0.635824 0.625226
43 2 0.468148 0.7044 0.330025
44 2 0.456901 0.715818 0.608552
59 2 0.422514 0.566388 0.313952
60 2 0.470854 0.700936 0.562446
75 1 0.393846 0.621261 0.410934
76 1 0.3861 0.586514 0.675189
91 1 0.36014 0.605442 0.46971
92 1 0.432473 0.671563 0.708577
103 1 0.559355 0.61837 0.311198
104 1 0.548242 0.582264 0.572615
115 1 0.390155 0.796718 0.316518
116 1 0.386272 0.794867 0.575017
123 1 0.415952 0.680835 0.443626
124 1 0.439044 0.688162 0.667477
135 1 0.596702 0.72102 0.327096
136 1 0.569699 0.70752 0.58816
167 1 0.469195 0.664001 0.254261
168 1 0.435265 0.665571 0.518248
191 1 0.44851 0.674051 0.383543
192 1 0.438195 0.565859 0.650781
39 2 0.49236 0.60481 0.472869
40 2 0.523633 0.645783 0.736536
47 2 0.644365 0.521303 0.354071
48 2 0.623658 0.50235 0.600058
55 2 0.515975 0.603738 0.424375
56 2 0.529567 0.605315 0.689536
63 2 0.641384 0.51319 0.304801
64 2 0.655285 0.522571 0.551112
71 1 0.481599 0.668674 0.287771
72 1 0.590173 0.664981 0.548744
79 1 0.621167 0.578232 0.420736
80 1 0.661497 0.51842 0.664615
87 1 0.575022 0.648464 0.346851
88 1 0.564876 0.642943 0.605419
95 1 0.630508 0.58449 0.484216
96 1 0.617124 0.55144 0.738742
119 1 0.675956 0.623534 0.328627
120 1 0.657455 0.622907 0.579926
127 1 0.60532 0.651771 0.452118
128 1 0.63035 0.653314 0.714386
159 1 0.593841 0.593503 0.39003
160 1 0.509107 0.637105 0.637903
183 1 0.586761 0.569637 0.247879
184 1 0.579972 0.606039 0.508272
ITEM: TIMESTEP
300
ITEM: NUMBER OF ATOMS
192
ITEM: BOX BOUNDS pp pp pp
-5.1810099999999997e+00 1.3918990000000001e+01
-5.1810099999999997e+00 1.3918990000000001e+01
-1.6228500000000000e+01 4.5771500000000003e+01
ITEM: ATOMS id type xs ys zs
1 2 0.391346 0.366404 0.274612
2 2 0.343123 0.364978 0.531067
9 2 0.399353 0.346906 0.398424
10 2 0.37496 0.347694 0.661383
17 2 0.326193 0.371627 0.356299
18 2 0.342825 0.361426 0.614189
25 2 0.376484 0.333211 0.483123
26 2 0.310782 0.341126 0.739721
97 1 0.37703 0.409024 0.318034
98 1 0.370981 0.34508 0.572843
137 1 0.370206 0.370718 0.440114
138 1 0.334216 0.377386 0.700747
145 1 0.44343 0.250184 0.274115
146 1 0.418189 0.266731 0.516587
153 1 0.381672 0.477951 0.375624
154 1 0.41158 0.452653 0.635005
161 1 0.277331 0.354604 0.262796
162 1 0.268011 0.397238 0.499725
169 1 0.41646 0.264364 0.368129
170 1 0.423578 0.269841 0.63191
177 1 0.468202 0.422817 0.248133
178 1 0.442748 0.446111 0.517484
185 1 0.276926 0.407962 0.391647
186 1 0.274447 0.417782 0.646099
5 2 0.54393 0.327892 0.266339
6 2 0.542352 0.328242 0.519898
13 2 0.635044 0.329814 0.411638
14 2 0.665938 0.325468 0.6627
21 2 0.553289 0.280019 0.372969
22 2 0.553047 0.307805 0.63024
29 2 0.633875 0.336989 0.479933
30 2 0.615894 0.292287 0.708466
41 2 0.475812 0.410774 0.35525
42 2 0.492677 0.382858 0.596269
57 2 0.506308 0.42471 0.305641
58 2 0.457706 0.432554 0.551808
73 1 0.487534 0.389196 0.425674
74 1 0.505602 0.383367 0.661506
89 1 0.501056 0.369185 0.479011
90 1 0.40383 0.296407 0.719262
101 1 0.549769 0.316623 0.330085
102 1 0.543497 0.303977 0.56515
105 1 0.432012 0.275665 0.452003
106 1 0.422047 0.298046 0.694793
165 1 0.524971 0.390536 0.234954
166 1 0.439432 0.421856 0.507404
189 1 0.527328 0.342617 0.408708
190 1 0.519434 0.426903 0.612809
45 2 0.672556 0.280172 0.341468
46 2 0.642554 0.32576 0.592692
61 2 0.64295 0.350557 0.301903
62 2 0.662702 0.276164 0.549515
77 1 0.745705 0.323154 0.42895
78 1 0.729495 0.336777 0.699358
93 1 0.758686 0.322904 0.479725
94 1 0.709961 0.330823 0.732159
109 1 0.745431 0.292086 0.468428
110 1 0.735854 0.328529 0.709567
141 1 0.66862 0.370817 0.456994
142 1 0.609648 0.32017 0.714043
149 1 0.620035 0.243944 0.252711
150 1 0.625413 0.232867 0.504488
157 1 0.639348 0.387805 0.374964
158 1 0.651081 0.413908 0.632651
173 1 0.635131 0.211342 0.395201
174 1 0.637088 0.217789 0.640578
181 1 0.597047 0.449628 0.273552
182 1 0.64014 0.418795 0.52533
3 2 0.360496 0.64187 0.273815
4 2 0.339578 0.628867 0.54464
11 2 0.281964 0.548064 0.39369
12 2 0.307455 0.549574 0.640909
19 2 0.350826 0.63894 0.359258
20 2 0.324054 0.63036 0.596598
27 2 0.328305 0.516853 0.508609
28 2 0.371602 0.613786 0.746037
33 2 0.396284 0.477563 0.465019
34 2 0.389079 0.466979 0.7302
49 2 0.404989 0.490412 0.41691
50 2 0.439514 0.469037 0.682925
65 1 0.357363 0.485933 0.288642
66 1 0.275622 0.41167 0.561151
81 1 0.243896 0.469866 0.362594
82 1 0.342274 0.487804 0.606229
129 1 0.257633 0.407252 0.325719
130 1 0.278926 0.414163 0.584048
139 1 0.290183 0.531385 0.441575
140 1 0.326329 0.576708 0.709085
147 1 0.422131 0.450047 0.246418
148 1 0.396589 0.491929 0.540759
171 1 0.366968 0.4963 0.366331
172 1 0.402414 0.463942 0.632512
7 2 0.48116 0.539817 0.266973
8 2 0.500392 0.572029 0.536209
15 2 0.562958 0.470962 0.399972
16 2 0.553041 0.498404 0.645208
23 2 0.486833 0.566535 0.367749
24 2 0.460939 0.551116 0.607369
31 2 0.553696 0.481235 0.497173
32 2 0.501132 0.517759 0.759711
107 1 0.512097 0.492501 0.443886
108 1 0.519682 0.504438 0.720402
113 1 0.312605 0.515869 0.333343
114 1 0.327371 0.519699 0.570153
121 1 0.554897 0.313862 0.446481
122 1 0.497487 0.373896 0.713734
133 1 0.531321 0.528236 0.335026
134 1 0.58664 0.418487 0.566782
37 2 0.708727 0.479817 0.482938
38 2 0.603361 0.417349 0.740371
53 2 0.685194 0.471947 0.433905
54 2 0.595757 0.439174 0.689725
69 1 0.630673 0.37987 0.302161
70 1 0.58955 0.415213 0.548291
85 1 0.610102 0.390174 0.356452
86 1 0.62804 0.36992 0.593959
111 1 0.704316 0.578952 0.457002
112 1 0.745267 0.634419 0.703984
117 1 0.702669 0.412333 0.334208
118 1 0.702539 0.39662 0.562336
125 1 0.785753 0.404591 0.454467
126 1 0.714622 0.442923 0.717815
143 1 0.586861 0.53115 0.454127
144 1 0.664422 0.547861 0.701404
151 1 0.661572 0.486311 0.247696
152 1 0.648484 0.410068 0.516779
175 1 0.666484 0.412636 0.381746
176 1 0.672989 0.45118 0.651467
35 2 0.332682 0.614864 0.470765
36 2 0.401098 0.695093 0.708305
51 2 0.286316 0.65571 0.429288
52 2 0.304714 0.649256 0.674896
67 1 0.31852 0.729926 0.297952
68 1 0.328176 0.755885 0.54462
83 1 0.327341 0.754257 0.347337
84 1 0.306627 0.753156 0.59535
99 1 0.326436 0.653271 0.32672
100 1 0.36323 0.638723 0.591011
131 1 0.285767 0.750035 0.310844
132 1 0.296242 0.723167 0.570155
155 1 0.408131 0.613595 0.398686
156 1 0.394027 0.643113 0.63284
163 1 0.24577 0.66513 0.260964
164 1 0.238094 0.604099 0.52146
179 1 0.404414 0.598581 0.239703
180 1 0.416684 0.627054 0.510145
187 1 0.237816 0.659043 0.377331
188 1 0.227075 0.636456 0.623434
43 2 0.467065 0.703812 0.329082
44 2 0.458403 0.713456 0.60942
59 2 0.420647 0.564451 0.314254
60 2 0.468735 0.697846 0.563699
75 1 0.395546 0.622604 0.406957
76 1 0.382464 0.581458 0.675379
91 1 0.358473 0.604162 0.469336
92 1 0.433629 0.673754 0.708075
103 1 0.559201 0.617148 0.310018
104 1 0.549022 0.583857 0.572908
115 1 0.388175 0.799956 0.318426
116 1 0.390909 0.796987 0.574464
123 1 0.411501 0.677036 0.441045
124 1 0.436573 0.68338 0.666943
135 1 0.596186 0.716514 0.32786
136 1 0.570763 0.704205 0.588354
167 1 0.465085 0.661261 0.252762
168 1 0.434828 0.668441 0.51819
191 1 0.446601 0.679005 0.383629
192 1 0.434836 0.562433 0.651034
39 2 0.490854 0.60687 0.471665
40 2 0.524484 0.647739 0.736318
47 2 0.640226 0.516057 0.356433
48 2 0.620124 0.497153 0.598357
55 2 0.518646 0.603513 0.42316
56 2 0.530116 0.605064 0.689494
63 2 0.641927 0.510731 0.306811
64 2 0.655992 0.524322 0.550045
71 1 0.480712 0.668623 0.287134
72 1 0.590155 0.667165 0.549839
79 1 0.623509 0.579828 0.421369
80 1 0.666607 0.517536 0.664502
87 1 0.571791 0.645022 0.346074
88 1 0.566053 0.636849 0.607455
95 1 0.631754 0.585897 0.484202
96 1 0.618427 0.549538 0.738448
119 1 0.674938 0.619637 0.32999
120 1 0.65894 0.619572 0.580699
127 1 0.604241 0.653219 0.452122
128 1 0.63148 0.653799 0.71464
159 1 0.590445 0.601551 0.390995
160 1 0.511115 0.634494 0.637918
183 1 0.583727 0.575578 0.248605
184 1 0.579345 0.609237 0.506812
ITEM: TIMESTEP
400
ITEM: NUMBER OF ATOMS
192
ITEM: BOX BOUNDS pp pp pp
-5.1810099999999997e+00 1.3918990000000001e+01
-5.1810099999999997e+00 1.3918990000000001e+01
-1.6228500000000000e+01 4.5771500000000003e+01
ITEM: ATOMS id type xs ys zs
1 2 0.391075 0.366838 0.274853
2 2 0.345509 0.364168 0.53079
9 2 0.404924 0.343982 0.397266
10 2 0.373416 0.348287 0.661253
17 2 0.326076 0.370825 0.355336
18 2 0.346335 0.360454 0.613736
25 2 0.376627 0.336002 0.482329
26 2 0.31085 0.343384 0.739558
97 1 0.374472 0.420577 0.317398
98 1 0.372553 0.342696 0.572423
137 1 0.371851 0.373882 0.438561
138 1 0.332312 0.379471 0.700493
145 1 0.444158 0.251094 0.275379
146 1 0.419789 0.268179 0.515575
153 1 0.375698 0.4809 0.37233
154 1 0.408879 0.454207 0.634788
161 1 0.277571 0.34915 0.26337
162 1 0.268617 0.397552 0.499798
169 1 0.411674 0.264362 0.365379
170 1 0.427005 0.270424 0.632937
177 1 0.467053 0.422988 0.248197
178 1 0.444556 0.442812 0.51642
185 1 0.281223 0.405662 0.391512
186 1 0.27279 0.415954 0.645134
5 2 0.543746 0.328951 0.266699
6 2 0.542083 0.333277 0.521051
13 2 0.638165 0.328347 0.412185
14 2 0.671253 0.326099 0.662997
21 2 0.547631 0.281375 0.374594
22 2 0.556752 0.30833 0.631293
29 2 0.633344 0.338775 0.480687
30 2 0.616402 0.292679 0.708326
41 2 0.476045 0.413667 0.355477
42 2 0.49585 0.375262 0.595504
57 2 0.506406 0.424552 0.306122
58 2 0.451798 0.439958 0.553526
73 1 0.491703 0.389553 0.42495
74 1 0.505741 0.383389 0.662902
89 1 0.499923 0.37348 0.479155
90 1 0.401872 0.297419 0.718506
101 1 0.546795 0.316026 0.330974
102 1 0.544502 0.299386 0.56474
105 1 0.430959 0.277333 0.450938
106 1 0.418055 0.297635 0.694757
165 1 0.528806 0.391579 0.235044
166 1 0.440791 0.423162 0.507099
189 1 0.53155 0.347586 0.410427
190 1 0.515827 0.423092 0.612531
45 2 0.667347 0.275105 0.342397
46 2 0.642954 0.324485 0.592446
61 2 0.641874 0.348315 0.302898
62 2 0.662737 0.275697 0.549166
77 1 0.748277 0.32292 0.430046
78 1 0.730412 0.337614 0.700477
93 1 0.757317 0.317839 0.479499
94 1 0.712736 0.329629 0.730963
109 1 0.749057 0.297274 0.472414
110 1 0.73555 0.330933 0.709878
141 1 0.670106 0.369247 0.457762
142 1 0.609575 0.320177 0.714098
149 1 0.617516 0.244748 0.252166
150 1 0.619115 0.23552 0.505391
157 1 0.64006 0.383694 0.374964
158 1 0.655311 0.413794 0.633043
173 1 0.630961 0.21005 0.396126
174 1 0.644357 0.219659 0.640662
181 1 0.598269 0.44954 0.274485
182 1 0.64304 0.419815 0.524081
3 2 0.359124 0.641973 0.274224
4 2 0.339278 0.629081 0.544119
11 2 0.280926 0.547247 0.393802
12 2 0.305854 0.548821 0.640709
19 2 0.349978 0.640824 0.359797
20 2 0.325507 0.631716 0.596441
27 2 0.331565 0.515587 0.508305
28 2 0.37162 0.616052 0.745721
33 2 0.398056 0.479087 0.463402
34 2 0.388553 0.469065 0.729595
49 2 0.409161 0.491123 0.414642
50 2 0.441343 0.467764 0.682257
65 1 0.359286 0.489819 0.285345
66 1 0.276383 0.408725 0.560898
81 1 0.2423 0.46777 0.363526
82 1 0.341082 0.487016 0.60604
129 1 0.256598 0.411295 0.325207
130 1 0.279801 0.411495 0.583929
139 1 0.290423 0.529299 0.440922
140 1 0.323897 0.578985 0.709257
147 1 0.424161 0.448116 0.246327
148 1 0.398471 0.492377 0.541341
171 1 0.365232 0.491547 0.367237
172 1 0.401132 0.463451 0.632577
7 2 0.479586 0.539742 0.267232
8 2 0.499598 0.575143 0.53526
15 2 0.570944 0.471346 0.400653
16 2 0.555365 0.496045 0.644526
23 2 0.484564 0.567494 0.37094
24 2 0.460537 0.548757 0.606921
31 2 0.554118 0.483953 0.496653
32 2 0.49979 0.519805 0.75948
107 1 0.514205 0.494321 0.442577
108 1 0.519414 0.505637 0.720233
113 1 0.309994 0.519962 0.335533
114 1 0.324911 0.519335 0.569852
121 1 0.555427 0.313975 0.446958
122 1 0.497065 0.372998 0.712344
133 1 0.530026 0.528206 0.335399
134 1 0.58139 0.419141 0.563204
37 2 0.709444 0.480208 0.484379
38 2 0.601139 0.417453 0.740556
53 2 0.686664 0.472142 0.43562
54 2 0.598551 0.440725 0.690101
69 1 0.63038 0.37803 0.303185
70 1 0.584066 0.416803 0.554167
85 1 0.610332 0.387207 0.357519
86 1 0.630916 0.361791 0.593063
111 1 0.703246 0.579633 0.458545
112 1 0.745647 0.637854 0.703895
117 1 0.702136 0.407961 0.335328
118 1 0.701365 0.394838 0.560954
125 1 0.787014 0.404998 0.456099
126 1 0.71403 0.444441 0.718776
143 1 0.585647 0.533265 0.453953
144 1 0.666376 0.549423 0.701628
151 1 0.662989 0.486681 0.24773
152 1 0.647405 0.414118 0.517241
175 1 0.671874 0.409363 0.381965
176 1 0.676122 0.447905 0.648675
35 2 0.332124 0.613624 0.470038
36 2 0.401355 0.695666 0.707661
51 2 0.279173 0.655144 0.429636
52 2 0.303603 0.648966 0.674677
67 1 0.321346 0.732212 0.298227
68 1 0.332232 0.756601 0.54403
83 1 0.324862 0.755714 0.347814