ITEM: TIMESTEP
0
ITEM: NUMBER OF ATOMS
192
ITEM: BOX BOUNDS pp pp pp
-5.1810099999999997e+00 1.3918990000000001e+01
-5.1810099999999997e+00 1.3918990000000001e+01
-1.6228500000000000e+01 4.5771500000000003e+01
ITEM: ATOMS id type xs ys zs
1 2 0.391035 0.367148 0.274785
2 2 0.349256 0.365317 0.530869
10 2 0.373573 0.347972 0.661172
17 2 0.32708 0.371455 0.355289
18 2 0.350329 0.359646 0.613546
25 2 0.377865 0.337982 0.482205
26 2 0.311097 0.345309 0.739333
98 1 0.374202 0.340986 0.572079
137 1 0.373559 0.373849 0.437971
138 1 0.331567 0.381156 0.700171
161 1 0.277819 0.344485 0.263915
162 1 0.269837 0.397499 0.500198
9 2 0.405844 0.340646 0.397252
145 1 0.445004 0.251753 0.276741
146 1 0.422525 0.270136 0.515421
169 1 0.411539 0.265782 0.363521
170 1 0.429252 0.26931 0.633532
5 2 0.543761 0.328889 0.266961
6 2 0.543422 0.337077 0.522016
21 2 0.5448 0.282998 0.376067
22 2 0.559503 0.308317 0.631149
42 2 0.496941 0.369785 0.594284
73 1 0.493706 0.388704 0.424676
74 1 0.506512 0.383285 0.662756
89 1 0.501111 0.375159 0.479891
90 1 0.400791 0.298411 0.717926
101 1 0.541554 0.316104 0.331841
102 1 0.545807 0.291524 0.564837
105 1 0.433177 0.278129 0.45124
106 1 0.415359 0.296928 0.694845
165 1 0.5315 0.39216 0.235317
189 1 0.530785 0.351429 0.412087
121 1 0.557071 0.314853 0.447733
122 1 0.496975 0.372348 0.711229
13 2 0.640402 0.328649 0.412782
14 2 0.674628 0.327629 0.662685
29 2 0.63416 0.34046 0.481614
30 2 0.617144 0.293155 0.707622
45 2 0.661525 0.273658 0.343446
46 2 0.644608 0.320594 0.591879
61 2 0.639426 0.346739 0.303817
62 2 0.662163 0.270677 0.548927
77 1 0.75015 0.322735 0.430998
78 1 0.731527 0.339232 0.700788
93 1 0.757057 0.313572 0.479389
94 1 0.713798 0.329186 0.730116
109 1 0.75089 0.300245 0.473866
110 1 0.735487 0.332369 0.710123
141 1 0.671174 0.368834 0.458361
142 1 0.60958 0.320761 0.714009
149 1 0.616179 0.244655 0.251788
150 1 0.618263 0.239109 0.506898
157 1 0.639315 0.383019 0.375343
173 1 0.627169 0.209951 0.396828
174 1 0.648191 0.220524 0.640758
69 1 0.628517 0.376481 0.303951
85 1 0.608313 0.385536 0.357759
86 1 0.632584 0.358256 0.592185
118 1 0.696294 0.392295 0.559154
97 1 0.372532 0.423953 0.31692
153 1 0.373515 0.484494 0.370888
185 1 0.283674 0.402453 0.392034
186 1 0.272197 0.413772 0.644896
11 2 0.279836 0.545999 0.393917
12 2 0.303699 0.548567 0.640759
27 2 0.333402 0.515286 0.507967
33 2 0.399851 0.479836 0.462457
34 2 0.388287 0.470632 0.728987
65 1 0.360622 0.491517 0.284096
66 1 0.277854 0.40696 0.56082
81 1 0.241102 0.465727 0.363938
82 1 0.338753 0.485813 0.606224
129 1 0.255589 0.414155 0.325842
130 1 0.281507 0.409618 0.583994
139 1 0.290893 0.527845 0.440147
140 1 0.322632 0.580666 0.709157
171 1 0.364267 0.491795 0.367712
172 1 0.399035 0.464021 0.632929
113 1 0.308394 0.522467 0.336305
114 1 0.325429 0.518896 0.569834
164 1 0.237527 0.595295 0.521751
76 1 0.379744 0.57741 0.675498
154 1 0.406703 0.455139 0.635216
177 1 0.467786 0.423402 0.248371
178 1 0.447522 0.443018 0.516058
41 2 0.475653 0.417063 0.355743
57 2 0.505596 0.425301 0.30626
58 2 0.444938 0.450241 0.555511
166 1 0.442745 0.425132 0.506999
190 1 0.510748 0.420183 0.612072
181 1 0.598273 0.449105 0.274653
49 2 0.411005 0.490082 0.413573
50 2 0.442298 0.46748 0.681712
147 1 0.426006 0.448009 0.246361
148 1 0.401992 0.495704 0.541465
7 2 0.479951 0.540771 0.267251
8 2 0.499034 0.579965 0.533401
15 2 0.573609 0.472004 0.401211
16 2 0.556388 0.495705 0.643869
23 2 0.485475 0.569377 0.371751
24 2 0.459097 0.546722 0.606835
31 2 0.555902 0.486216 0.496228
32 2 0.499071 0.520589 0.759154
107 1 0.516192 0.495427 0.441356
108 1 0.519227 0.506241 0.719825
133 1 0.529696 0.530228 0.33536
134 1 0.574248 0.416448 0.561859
38 2 0.599604 0.417595 0.740257
54 2 0.599149 0.44171 0.689619
70 1 0.575066 0.415531 0.559305
143 1 0.585153 0.53515 0.453792
59 2 0.417399 0.563086 0.314679
104 1 0.546914 0.580956 0.573163
192 1 0.432038 0.558768 0.649967
183 1 0.58118 0.585282 0.250282
158 1 0.65737 0.414186 0.632631
182 1 0.646841 0.419667 0.522407
37 2 0.710964 0.481048 0.485017
53 2 0.687936 0.472321 0.436622
111 1 0.70282 0.580788 0.459474
117 1 0.700632 0.40562 0.336056
125 1 0.788456 0.404989 0.457356
126 1 0.713025 0.44545 0.719215
144 1 0.667421 0.54999 0.701232
151 1 0.66417 0.487416 0.247964
152 1 0.647649 0.417585 0.517885
175 1 0.672877 0.409041 0.382197
176 1 0.677633 0.447769 0.647248
47 2 0.637095 0.511775 0.357312
48 2 0.615145 0.485399 0.595951
63 2 0.64294 0.507575 0.308047
64 2 0.6486 0.521346 0.547886
79 1 0.631002 0.580321 0.422077
80 1 0.669366 0.518432 0.664031
95 1 0.635572 0.588653 0.483996
96 1 0.617763 0.549932 0.738192
3 2 0.358772 0.642463 0.274589
4 2 0.339185 0.629496 0.543565
19 2 0.349531 0.640844 0.359917
20 2 0.326217 0.6326 0.5962
28 2 0.371363 0.617256 0.745459
35 2 0.331705 0.612103 0.469453
51 2 0.277494 0.654169 0.429272
52 2 0.302956 0.650006 0.674478
67 1 0.322031 0.733541 0.298399
68 1 0.335132 0.756957 0.543147
83 1 0.323968 0.756102 0.348119
84 1 0.313806 0.756799 0.59482
99 1 0.327448 0.656004 0.327161
100 1 0.359168 0.638282 0.591929
131 1 0.290653 0.74963 0.308638
132 1 0.300164 0.72547 0.569428
155 1 0.397818 0.620558 0.401287
156 1 0.392844 0.639053 0.63269
163 1 0.243495 0.652295 0.261087
187 1 0.235722 0.659306 0.377838
188 1 0.227166 0.634571 0.621636
75 1 0.393673 0.622726 0.404434
91 1 0.357028 0.602809 0.46792
116 1 0.396546 0.798348 0.572986
36 2 0.401589 0.696177 0.707288
179 1 0.404928 0.603038 0.240391
180 1 0.413133 0.631346 0.507953
43 2 0.464423 0.70449 0.328463
44 2 0.463531 0.707526 0.610688
60 2 0.466793 0.693337 0.56524
92 1 0.433912 0.673735 0.707056
103 1 0.55533 0.611312 0.310846
123 1 0.406002 0.676303 0.439133
124 1 0.434978 0.679829 0.666213
135 1 0.593043 0.711172 0.328824
136 1 0.573365 0.697846 0.588002
167 1 0.457915 0.65792 0.250959
168 1 0.431861 0.676791 0.517292
191 1 0.446143 0.689016 0.38205
39 2 0.489446 0.611114 0.469933
40 2 0.524229 0.650157 0.735597
55 2 0.519496 0.60901 0.421479
56 2 0.531481 0.604562 0.689072
71 1 0.480316 0.667782 0.287498
72 1 0.588724 0.666523 0.550897
87 1 0.564532 0.644594 0.346838
88 1 0.568363 0.620964 0.611228
160 1 0.51235 0.629454 0.638441
184 1 0.582958 0.613862 0.505069
112 1 0.745743 0.639535 0.703778
119 1 0.67049 0.616274 0.332521
120 1 0.658597 0.609507 0.580738
127 1 0.605002 0.656195 0.451638
128 1 0.631688 0.655126 0.714346
159 1 0.603595 0.600878 0.391223
115 1 0.387594 0.803702 0.319885
ITEM: TIMESTEP
100
ITEM: NUMBER OF ATOMS
192
ITEM: BOX BOUNDS pp pp pp
-5.1810099999999997e+00 1.3918990000000001e+01
-5.1810099999999997e+00 1.3918990000000001e+01
-1.6228500000000000e+01 4.5771500000000003e+01
ITEM: ATOMS id type xs ys zs
1 2 0.389979 0.365579 0.274937
2 2 0.351658 0.369205 0.530768
10 2 0.374741 0.348412 0.661047
17 2 0.327911 0.372069 0.35535
18 2 0.35401 0.360861 0.613526
25 2 0.377051 0.337036 0.482116
26 2 0.311262 0.345699 0.739194
98 1 0.375248 0.338713 0.572283
137 1 0.373153 0.373847 0.437916
138 1 0.330321 0.381399 0.69988
161 1 0.277488 0.340779 0.26419
162 1 0.270135 0.395984 0.500408
9 2 0.403873 0.339977 0.397373
145 1 0.445385 0.252359 0.278085
146 1 0.42295 0.272057 0.515757
169 1 0.415867 0.268301 0.362095
170 1 0.429264 0.268308 0.63389
5 2 0.542123 0.329093 0.26597
6 2 0.545069 0.342158 0.522052
21 2 0.545524 0.280243 0.377083
22 2 0.560495 0.306942 0.631282
42 2 0.495554 0.369776 0.594147
73 1 0.493047 0.386705 0.423996
74 1 0.507178 0.38255 0.662647
89 1 0.501802 0.374172 0.480448
90 1 0.40162 0.301402 0.717396
101 1 0.537959 0.312261 0.334049
102 1 0.545859 0.290592 0.564379
105 1 0.434005 0.279387 0.451418
106 1 0.415909 0.299449 0.695169
165 1 0.538138 0.391865 0.233083
189 1 0.519768 0.362915 0.415584
121 1 0.559359 0.315379 0.448071
122 1 0.491599 0.381938 0.711409
13 2 0.640524 0.326876 0.412587
14 2 0.675193 0.328304 0.662695
29 2 0.633846 0.340569 0.481369
30 2 0.619342 0.293118 0.707474
45 2 0.661016 0.272258 0.344203
46 2 0.644134 0.320881 0.591222
61 2 0.642076 0.342253 0.303866
62 2 0.661609 0.270771 0.548961
77 1 0.750494 0.32334 0.431371
78 1 0.733072 0.340174 0.700774
93 1 0.757271 0.311766 0.479304
94 1 0.716441 0.328753 0.729294
109 1 0.752014 0.300887 0.47401
110 1 0.736911 0.333335 0.710698
141 1 0.672755 0.371173 0.459422
142 1 0.610244 0.323126 0.713022
149 1 0.614392 0.245268 0.251629
150 1 0.618526 0.241105 0.507256
157 1 0.626329 0.385027 0.373296
173 1 0.626227 0.207373 0.397963
174 1 0.65175 0.221454 0.640074
69 1 0.628186 0.382444 0.304006
85 1 0.608324 0.390298 0.363591
86 1 0.632408 0.354118 0.591265
118 1 0.705936 0.390764 0.560439
97 1 0.368592 0.423318 0.31609
153 1 0.37307 0.488328 0.3695
185 1 0.283624 0.401892 0.392184
186 1 0.277048 0.416714 0.644026
11 2 0.279394 0.545562 0.393849
12 2 0.305694 0.550614 0.639695
27 2 0.330336 0.516573 0.50633
33 2 0.40087 0.479371 0.462319
34 2 0.388784 0.471434 0.728766
65 1 0.360904 0.4907 0.283558
66 1 0.281001 0.408361 0.560829
81 1 0.24213 0.466336 0.363716
82 1 0.339476 0.486163 0.606855
129 1 0.254976 0.418878 0.326707
130 1 0.284248 0.408957 0.584223
139 1 0.29195 0.527402 0.439574
140 1 0.319481 0.582309 0.709526
171 1 0.365903 0.492977 0.367677
172 1 0.397932 0.464239 0.633263
113 1 0.310484 0.531942 0.337192
114 1 0.337881 0.517294 0.569233
164 1 0.236453 0.594474 0.521372
76 1 0.374477 0.57452 0.676373
154 1 0.406763 0.454649 0.63567
177 1 0.472249 0.423187 0.249262
178 1 0.451764 0.454424 0.521718
41 2 0.47798 0.416378 0.356454
57 2 0.501753 0.426774 0.306265
58 2 0.437178 0.452023 0.558838
166 1 0.442634 0.424841 0.504813
190 1 0.491193 0.422756 0.61403
181 1 0.595995 0.4491 0.275308
49 2 0.412002 0.490008 0.413217
50 2 0.44234 0.467655 0.68187
147 1 0.427469 0.448276 0.246541
148 1 0.414759 0.487499 0.538069
7 2 0.480446 0.542385 0.267354
8 2 0.501168 0.583062 0.532307
15 2 0.575801 0.47047 0.400802
16 2 0.555461 0.495463 0.643656
23 2 0.485898 0.569479 0.371973
24 2 0.457451 0.546205 0.607492
31 2 0.553054 0.488719 0.495202
32 2 0.500051 0.519981 0.759597
107 1 0.517457 0.494518 0.440398
108 1 0.518253 0.508092 0.719598
133 1 0.529516 0.531251 0.33565
134 1 0.568663 0.415041 0.560756
38 2 0.597361 0.416187 0.739735
54 2 0.599598 0.441086 0.689856
70 1 0.582889 0.41112 0.556611
143 1 0.584823 0.53594 0.453107
59 2 0.417652 0.563046 0.31501
104 1 0.545874 0.580388 0.575439
192 1 0.432425 0.556996 0.649875
183 1 0.582584 0.583685 0.250423
158 1 0.655563 0.414444 0.632133
182 1 0.655302 0.408659 0.526757
37 2 0.710753 0.480723 0.485665
53 2 0.688833 0.471636 0.436611
111 1 0.703881 0.579702 0.459533
117 1 0.697393 0.403461 0.337766
125 1 0.790814 0.40581 0.457879
126 1 0.71274 0.445969 0.719382
144 1 0.667628 0.549714 0.700898
151 1 0.665208 0.488042 0.248166
152 1 0.649988 0.41741 0.518141
175 1 0.675425 0.410932 0.382041
176 1 0.678689 0.447459 0.647388
47 2 0.638629 0.514962 0.356693
48 2 0.612457 0.481012 0.595698
63 2 0.64498 0.509192 0.308024
64 2 0.645446 0.518256 0.547321
79 1 0.6382 0.579661 0.422626
80 1 0.669607 0.518349 0.664147
95 1 0.638854 0.587698 0.484054
96 1 0.618522 0.547685 0.738003
3 2 0.358763 0.642568 0.274987
4 2 0.339514 0.628005 0.543113
19 2 0.35058 0.64025 0.360285
20 2 0.329369 0.632308 0.595632
28 2 0.371313 0.617205 0.745012
35 2 0.330646 0.611321 0.469249
51 2 0.277077 0.654008 0.429142
52 2 0.30247 0.649617 0.67417
67 1 0.320478 0.737093 0.297026
68 1 0.337229 0.756147 0.542302
83 1 0.322937 0.755918 0.348435
84 1 0.315266 0.756393 0.594714
99 1 0.319409 0.660637 0.325892
100 1 0.356838 0.637347 0.593404
131 1 0.28762 0.755167 0.306532
132 1 0.298835 0.724319 0.569657
155 1 0.395266 0.620037 0.401274
156 1 0.396681 0.637224 0.632152
163 1 0.243369 0.645541 0.261491
187 1 0.236566 0.659046 0.377698
188 1 0.228695 0.634963 0.621066
75 1 0.390919 0.622104 0.404591
91 1 0.355713 0.602225 0.467888
116 1 0.396555 0.796863 0.57222
36 2 0.401548 0.696609 0.707004
179 1 0.405665 0.605246 0.240723
180 1 0.411317 0.632058 0.507451
43 2 0.462588 0.704034 0.328377
44 2 0.463299 0.704466 0.610529
60 2 0.465946 0.690156 0.565715
92 1 0.4333 0.674146 0.706657
103 1 0.553626 0.608214 0.311085
123 1 0.40495 0.676741 0.439184
124 1 0.432349 0.676176 0.666124
135 1 0.590786 0.709477 0.328856
136 1 0.575055 0.696074 0.587731
167 1 0.455346 0.657669 0.25037
168 1 0.429558 0.679484 0.517277
191 1 0.44451 0.684894 0.38399
39 2 0.487977 0.611588 0.469589
40 2 0.523574 0.650008 0.735524
55 2 0.519863 0.610588 0.421425
56 2 0.531918 0.604851 0.689041
71 1 0.479924 0.669349 0.288052
72 1 0.588111 0.66411 0.551346
87 1 0.563182 0.646521 0.346882
88 1 0.569173 0.617739 0.612685
160 1 0.504283 0.626265 0.639219
184 1 0.584397 0.616684 0.501738
112 1 0.745702 0.640519 0.703668
119 1 0.670479 0.6189 0.332677
120 1 0.66127 0.603864 0.578043
127 1 0.604254 0.655923 0.454685
128 1 0.631482 0.655138 0.714403
159 1 0.606656 0.599689 0.390821
115 1 0.384844 0.804 0.31951
ITEM: TIMESTEP
200
ITEM: NUMBER OF ATOMS
192
ITEM: BOX BOUNDS pp pp pp
-5.1810099999999997e+00 1.3918990000000001e+01
-5.1810099999999997e+00 1.3918990000000001e+01
-1.6228500000000000e+01 4.5771500000000003e+01
ITEM: ATOMS id type xs ys zs
1 2 0.390406 0.36653 0.274255
2 2 0.359309 0.376273 0.531241
10 2 0.376979 0.348177 0.661082
17 2 0.332743 0.378533 0.354765
18 2 0.362306 0.358249 0.612531
25 2 0.374377 0.334245 0.481494
26 2 0.311641 0.34717 0.738556
98 1 0.375396 0.333467 0.570759
137 1 0.374544 0.371977 0.43735
138 1 0.328427 0.385749 0.699415
161 1 0.279474 0.330013 0.265014
162 1 0.272114 0.394001 0.501244
9 2 0.398434 0.337419 0.397445
145 1 0.450923 0.254278 0.281469
146 1 0.426502 0.276168 0.516009
169 1 0.426252 0.276728 0.357678
170 1 0.43168 0.263131 0.635286
5 2 0.541922 0.330743 0.266971
6 2 0.55072 0.343597 0.521872
21 2 0.539929 0.275908 0.380434
22 2 0.561567 0.306046 0.632045
42 2 0.496007 0.359562 0.592262
73 1 0.495792 0.382016 0.421819
74 1 0.508376 0.379906 0.663396
89 1 0.500837 0.371214 0.481872
90 1 0.402196 0.30585 0.716532
101 1 0.533134 0.311354 0.336411
102 1 0.54254 0.283252 0.563477
105 1 0.435666 0.277725 0.451463
106 1 0.418497 0.306948 0.696575
165 1 0.554066 0.382974 0.231832
189 1 0.503662 0.382494 0.418303
121 1 0.555683 0.318512 0.448487
122 1 0.495778 0.382532 0.712941
13 2 0.64452 0.329481 0.412727
14 2 0.679429 0.329859 0.662405
29 2 0.637141 0.34224 0.481072
30 2 0.624583 0.290759 0.706311
45 2 0.655777 0.269178 0.346083
46 2 0.637755 0.316347 0.591736
61 2 0.635969 0.340137 0.305743
62 2 0.661149 0.271136 0.54848
77 1 0.751155 0.324371 0.433193
78 1 0.734681 0.343342 0.700431
93 1 0.758113 0.307914 0.478899
94 1 0.720482 0.330891 0.726765
109 1 0.753511 0.300301 0.473804
110 1 0.737226 0.335564 0.713028
141 1 0.671378 0.372247 0.461364
142 1 0.611453 0.323971 0.711715
149 1 0.611552 0.243342 0.250317
150 1 0.619499 0.242988 0.507798
157 1 0.618181 0.389134 0.374981
173 1 0.62202 0.205227 0.401142
174 1 0.661276 0.226635 0.638608
69 1 0.626433 0.378907 0.305324
85 1 0.605215 0.387732 0.366025
86 1 0.627864 0.34463 0.591572
118 1 0.705928 0.392977 0.564963
97 1 0.364679 0.427055 0.314968
153 1 0.39035 0.482947 0.373357
185 1 0.28032 0.401417 0.391449
186 1 0.290491 0.425576 0.640822
11 2 0.279202 0.545129 0.393769
12 2 0.308192 0.556633 0.638306
27 2 0.335779 0.514339 0.507245
33 2 0.401778 0.477163 0.461242
34 2 0.386062 0.474105 0.728459
65 1 0.3641 0.492714 0.282513
66 1 0.284496 0.40733 0.561763
81 1 0.241837 0.467195 0.363005
82 1 0.331084 0.484166 0.603088
129 1 0.249676 0.429364 0.329288
130 1 0.289401 0.409772 0.583594
139 1 0.293201 0.524814 0.438223
140 1 0.309397 0.586635 0.710435
171 1 0.355436 0.508247 0.364837
172 1 0.394752 0.461018 0.635812
113 1 0.299554 0.537101 0.333676
114 1 0.31582 0.52249 0.568608
164 1 0.2359 0.591573 0.521002
76 1 0.363329 0.571478 0.676778
154 1 0.405328 0.456492 0.636076
177 1 0.462135 0.428158 0.249516
178 1 0.463756 0.468999 0.52778
41 2 0.486179 0.414562 0.359126
57 2 0.502631 0.425336 0.307259
58 2 0.431598 0.460883 0.561009
166 1 0.442685 0.424044 0.50233
190 1 0.489503 0.416278 0.61885
181 1 0.594816 0.45091 0.27517
49 2 0.414652 0.488418 0.411893
50 2 0.441419 0.469788 0.681804
147 1 0.430327 0.447954 0.248414
148 1 0.417 0.504058 0.541998
7 2 0.482051 0.545599 0.268137
8 2 0.503176 0.591156 0.528585
15 2 0.582183 0.474829 0.401285
16 2 0.553711 0.493616 0.644051
23 2 0.489445 0.572515 0.37148
24 2 0.452286 0.541418 0.607506
31 2 0.555761 0.492235 0.494294
32 2 0.50031 0.520162 0.760124
107 1 0.518851 0.48847 0.439772
108 1 0.51739 0.507975 0.719073
133 1 0.527594 0.52972 0.335836
134 1 0.541444 0.424554 0.554096
38 2 0.595084 0.414891 0.740031
54 2 0.5997 0.443207 0.689531
70 1 0.594919 0.398714 0.55875
143 1 0.587246 0.539368 0.453591
59 2 0.41323 0.564578 0.316517
104 1 0.543646 0.572226 0.575165
192 1 0.432188 0.558047 0.649526
183 1 0.585746 0.582366 0.25069
158 1 0.654134 0.415625 0.632016
182 1 0.674065 0.395151 0.529621
37 2 0.711359 0.47814 0.486639
53 2 0.690598 0.468658 0.437699
111 1 0.702985 0.576642 0.460721
117 1 0.692169 0.40115 0.341397
125 1 0.791123 0.406172 0.458944
126 1 0.710283 0.448591 0.720164
144 1 0.669382 0.550354 0.700547
151 1 0.668804 0.490141 0.248864
152 1 0.663771 0.416032 0.514876
175 1 0.685265 0.413766 0.383111
176 1 0.678087 0.449343 0.647234
47 2 0.638468 0.51862 0.35675
48 2 0.607682 0.472978 0.593776
63 2 0.642501 0.509235 0.308426
64 2 0.641382 0.511127 0.545267
79 1 0.646808 0.582254 0.424532
80 1 0.669895 0.517467 0.663117
95 1 0.643537 0.59165 0.485865
96 1 0.619219 0.544912 0.737793
3 2 0.35858 0.644196 0.275843
4 2 0.339207 0.628998 0.540904
19 2 0.351332 0.642298 0.361169
20 2 0.334738 0.631815 0.595894
28 2 0.371382 0.618729 0.744651
35 2 0.326585 0.6089 0.468053
51 2 0.274883 0.65302 0.42801
52 2 0.298134 0.648528 0.674594
67 1 0.316252 0.746192 0.293935
68 1 0.342741 0.75334 0.539015
83 1 0.319258 0.754942 0.347389
84 1 0.320168 0.756403 0.594393
99 1 0.309916 0.668565 0.321503
100 1 0.35235 0.636625 0.592191
131 1 0.285466 0.763317 0.302811
132 1 0.299578 0.720171 0.568151
155 1 0.397702 0.619355 0.400668
156 1 0.399816 0.640641 0.631916
163 1 0.243814 0.620632 0.263394
187 1 0.235158 0.658319 0.377364
188 1 0.230303 0.642108 0.618172
75 1 0.391874 0.621698 0.405317
91 1 0.353466 0.600812 0.46646
116 1 0.397872 0.791933 0.569499
36 2 0.399295 0.696431 0.706596
179 1 0.40895 0.612837 0.24176
180 1 0.408269 0.634807 0.504857
43 2 0.456216 0.707308 0.328439
44 2 0.467632 0.699871 0.611062
60 2 0.465329 0.681888 0.566258
92 1 0.436101 0.676509 0.707246
103 1 0.54978 0.604325 0.311518
123 1 0.40291 0.677944 0.438918
124 1 0.430796 0.672541 0.666662
135 1 0.584596 0.708204 0.328375
136 1 0.575947 0.685249 0.587668
167 1 0.447694 0.655324 0.248825
168 1 0.428124 0.687883 0.516935
191 1 0.439419 0.681337 0.387993
39 2 0.484059 0.611926 0.468845
40 2 0.523125 0.649736 0.735539
55 2 0.519075 0.609992 0.420866
56 2 0.534739 0.606236 0.689126
71 1 0.480981 0.669714 0.288801
72 1 0.590059 0.657326 0.552824
87 1 0.560116 0.648989 0.34553
88 1 0.561793 0.60673 0.616844
160 1 0.505158 0.622274 0.639663
184 1 0.58152 0.625191 0.493415
112 1 0.74556 0.642714 0.703215
119 1 0.670041 0.622203 0.332303
120 1 0.658029 0.591945 0.57927
127 1 0.60601 0.656668 0.456028
128 1 0.631849 0.654157 0.715167
159 1 0.612962 0.60005 0.389049
115 1 0.378488 0.805235 0.319425
ITEM: TIMESTEP
300
ITEM: NUMBER OF ATOMS
192
ITEM: BOX BOUNDS pp pp pp
-5.1810099999999997e+00 1.3918990000000001e+01
-5.1810099999999997e+00 1.3918990000000001e+01
-1.6228500000000000e+01 4.5771500000000003e+01
ITEM: ATOMS id type xs ys zs
1 2 0.3897 0.367898 0.276142
2 2 0.367353 0.377717 0.531508
10 2 0.378264 0.347248 0.661193
17 2 0.339085 0.39348 0.352364
18 2 0.366686 0.358668 0.612464
25 2 0.377191 0.335549 0.481904
26 2 0.311025 0.349564 0.737536
98 1 0.376908 0.341354 0.570369
137 1 0.379228 0.365469 0.437345
138 1 0.330956 0.388918 0.698647
161 1 0.284489 0.312637 0.26594
162 1 0.277169 0.399599 0.503294
9 2 0.39379 0.340488 0.395996
145 1 0.452467 0.26048 0.285628
146 1 0.432139 0.277166 0.515203
169 1 0.421502 0.285028 0.359372
170 1 0.434353 0.263718 0.636356
5 2 0.543496 0.336848 0.268476
6 2 0.558911 0.338896 0.519743
21 2 0.540546 0.281331 0.383009
22 2 0.561611 0.300559 0.632997
42 2 0.498132 0.348055 0.586726
73 1 0.491835 0.390427 0.421817
74 1 0.510563 0.379602 0.664128
89 1 0.500676 0.377025 0.482875
90 1 0.401551 0.305617 0.715861
101 1 0.53008 0.310799 0.335888
102 1 0.540465 0.257743 0.557994
105 1 0.437939 0.273449 0.453009
106 1 0.416469 0.305346 0.695916
165 1 0.574971 0.364418 0.233697
189 1 0.512264 0.376979 0.414926
121 1 0.554505 0.3265 0.447102
122 1 0.493231 0.385483 0.711312
13 2 0.648212 0.333485 0.414581
14 2 0.685494 0.335108 0.66191
29 2 0.641116 0.340892 0.477937
30 2 0.63006 0.292186 0.704443
45 2 0.64425 0.265805 0.349682
46 2 0.628648 0.301715 0.591978
61 2 0.63083 0.340797 0.309436
62 2 0.666592 0.274976 0.54945
77 1 0.74956 0.32224 0.436107
78 1 0.738303 0.350553 0.700201
93 1 0.758767 0.302021 0.478072
94 1 0.728185 0.333054 0.723315
109 1 0.754767 0.29341 0.473807
110 1 0.736223 0.337006 0.717276
141 1 0.669951 0.371981 0.463509
142 1 0.613038 0.322919 0.711899
149 1 0.6005 0.247519 0.249652
150 1 0.634092 0.239654 0.505086
157 1 0.637529 0.374712 0.373684
173 1 0.619708 0.210428 0.407117
174 1 0.672591 0.231596 0.63879
69 1 0.618729 0.376823 0.310022
85 1 0.614307 0.375145 0.363105
86 1 0.633413 0.329727 0.593722
118 1 0.694844 0.388608 0.568602
97 1 0.349535 0.431972 0.311159
153 1 0.392446 0.476594 0.379199
185 1 0.27538 0.404534 0.387321
186 1 0.288458 0.423359 0.641814
11 2 0.283724 0.543504 0.392668
12 2 0.305411 0.557448 0.637292
27 2 0.349679 0.516607 0.506636
33 2 0.401673 0.473684 0.460326
34 2 0.382231 0.478663 0.728522
65 1 0.354757 0.500695 0.280484
66 1 0.278853 0.39911 0.559457
81 1 0.241344 0.474817 0.361618
82 1 0.316991 0.477871 0.606114
129 1 0.245864 0.427524 0.328733
130 1 0.287034 0.407143 0.58441
139 1 0.291875 0.521524 0.435654
140 1 0.304667 0.588805 0.711731
171 1 0.374973 0.515109 0.362739
172 1 0.389165 0.45993 0.636746
113 1 0.291123 0.539545 0.336419
114 1 0.293374 0.534044 0.568492
164 1 0.24123 0.576658 0.520545
76 1 0.359286 0.571437 0.678524
154 1 0.404002 0.453421 0.637552
177 1 0.46602 0.432927 0.250762
178 1 0.474128 0.455854 0.521073
41 2 0.485728 0.422964 0.362237
57 2 0.493235 0.427234 0.310482
58 2 0.418026 0.486798 0.563455
166 1 0.458172 0.410645 0.502093
190 1 0.49378 0.413967 0.618898
181 1 0.594872 0.451341 0.275763
49 2 0.415433 0.486809 0.410844
50 2 0.440135 0.474248 0.682293
147 1 0.437961 0.451308 0.249386
148 1 0.409918 0.527522 0.548157
7 2 0.480711 0.549003 0.27002
8 2 0.49976 0.599231 0.524598
15 2 0.582751 0.479214 0.402405
16 2 0.555283 0.495132 0.644334
23 2 0.490413 0.578433 0.371145
24 2 0.443706 0.536968 0.609099
31 2 0.56345 0.492612 0.494027
32 2 0.497252 0.520147 0.759273
107 1 0.523505 0.48989 0.439522
108 1 0.516328 0.507982 0.720014
133 1 0.525154 0.535676 0.338046
134 1 0.536169 0.427031 0.555388
38 2 0.595545 0.412585 0.739802
54 2 0.600478 0.443546 0.69029
70 1 0.587649 0.385804 0.559156
143 1 0.588276 0.54005 0.457629
59 2 0.411204 0.566352 0.317544
104 1 0.541453 0.557766 0.574778
192 1 0.42925 0.55762 0.650025
183 1 0.584813 0.580483 0.252248
158 1 0.653246 0.413885 0.632031
182 1 0.678564 0.39565 0.528289
37 2 0.716792 0.47845 0.488033
53 2 0.689811 0.470381 0.440343
111 1 0.703453 0.579482 0.462278
117 1 0.70222 0.399294 0.336902
125 1 0.792199 0.401758 0.461041
126 1 0.708943 0.452211 0.720793
144 1 0.67079 0.553183 0.699606
151 1 0.670036 0.49685 0.251348
152 1 0.672147 0.409735 0.513348
175 1 0.690709 0.420489 0.387074
176 1 0.678992 0.455053 0.647837
47 2 0.637391 0.508941 0.357591
48 2 0.607264 0.461618 0.593944
63 2 0.638054 0.503418 0.309181
64 2 0.639169 0.50504 0.542715
79 1 0.64132 0.581075 0.426467
80 1 0.670577 0.515822 0.663392
95 1 0.652644 0.591496 0.484594
96 1 0.61794 0.54435 0.737564
3 2 0.358884 0.648607 0.276996
4 2 0.341038 0.635381 0.538316
19 2 0.346352 0.643663 0.360704
20 2 0.339684 0.635757 0.594696
28 2 0.371724 0.622472 0.745264
35 2 0.321904 0.600128 0.46691
51 2 0.272749 0.652929 0.426919
52 2 0.291815 0.645977 0.674474
67 1 0.314615 0.753 0.291234
68 1 0.346723 0.759434 0.533015
83 1 0.307551 0.753405 0.345034
84 1 0.328351 0.760875 0.591894
99 1 0.314744 0.671595 0.318812
100 1 0.350473 0.640873 0.590439
131 1 0.287298 0.766139 0.299321
132 1 0.301109 0.723296 0.566987
155 1 0.396764 0.618509 0.399739
156 1 0.396858 0.651751 0.631043
163 1 0.258283 0.574457 0.268368
187 1 0.2292 0.653586 0.377837
188 1 0.236535 0.647726 0.6171
75 1 0.392273 0.62041 0.403273
91 1 0.349545 0.59472 0.464882
116 1 0.400984 0.787315 0.56422
36 2 0.39694 0.692586 0.705616
179 1 0.418366 0.625294 0.243809
180 1 0.401695 0.648574 0.501109
43 2 0.448386 0.712733 0.328134
44 2 0.471927 0.692941 0.611544
60 2 0.465327 0.672482 0.566171
92 1 0.44094 0.684783 0.709232
103 1 0.544736 0.597196 0.309557
123 1 0.400913 0.672458 0.438459
124 1 0.426906 0.666579 0.667323
135 1 0.577373 0.702503 0.325972
136 1 0.578191 0.669748 0.58693
167 1 0.439441 0.648431 0.247457
168 1 0.42368 0.702911 0.515439
191 1 0.433283 0.680878 0.389083
39 2 0.481317 0.607136 0.469102
40 2 0.52577 0.649335 0.73625
55 2 0.519464 0.6119 0.42151
56 2 0.536834 0.60504 0.69009
71 1 0.482571 0.676092 0.289546
72 1 0.585931 0.654195 0.552214
87 1 0.555998 0.653446 0.342639
88 1 0.557458 0.603484 0.619598
160 1 0.506392 0.61727 0.639668
184 1 0.584944 0.627933 0.49225
112 1 0.746889 0.64615 0.702414
119 1 0.662227 0.615443 0.332102
120 1 0.660078 0.58236 0.572912
127 1 0.602202 0.658332 0.454082
128 1 0.635361 0.652859 0.7163
159 1 0.611974 0.605873 0.388344
115 1 0.372103 0.811078 0.318378
ITEM: TIMESTEP
400
ITEM: NUMBER OF ATOMS
192
ITEM: BOX BOUNDS pp pp pp
-5.1810099999999997e+00 1.3918990000000001e+01
-5.1810099999999997e+00 1.3918990000000001e+01
-1.6228500000000000e+01 4.5771500000000003e+01
ITEM: ATOMS id type xs ys zs
1 2 0.388436 0.370929 0.276359
2 2 0.372539 0.380238 0.531761
10 2 0.377728 0.346866 0.661437
17 2 0.346917 0.404385 0.349325
18 2 0.365197 0.361614 0.612871
25 2 0.381163 0.336106 0.483318
26 2 0.309477 0.351627 0.737057
98 1 0.35369 0.340087 0.570812
137 1 0.380559 0.362682 0.437053
138 1 0.329772 0.385454 0.698403
161 1 0.303331 0.297252 0.267259
162 1 0.286345 0.409462 0.502851
9 2 0.395157 0.349576 0.39499
145 1 0.453781 0.269005 0.290827
146 1 0.442941 0.277086 0.516144
169 1 0.416718 0.283381 0.36049
170 1 0.432888 0.265016 0.634206
5 2 0.541629 0.335572 0.271226
6 2 0.565466 0.328841 0.517783
21 2 0.540082 0.283072 0.384263
22 2 0.563436 0.301672 0.632477
42 2 0.485065 0.347088 0.583864
73 1 0.495007 0.385923 0.42104
74 1 0.511149 0.378537 0.663337
89 1 0.504555 0.37925 0.482334
90 1 0.39954 0.303883 0.715502
101 1 0.521531 0.315535 0.340791
102 1 0.549783 0.265949 0.55658
105 1 0.441367 0.273639 0.455028
106 1 0.413658 0.299833 0.696436
165 1 0.593672 0.343614 0.237209
189 1 0.509529 0.370527 0.416417
121 1 0.5528 0.315947 0.446841
122 1 0.495284 0.378626 0.710877
13 2 0.650392 0.338574 0.416933
14 2 0.687848 0.341273 0.661316
29 2 0.651077 0.34151 0.474739
30 2 0.627252 0.291676 0.701809
45 2 0.64353 0.264604 0.350313
46 2 0.624691 0.277701 0.591559
61 2 0.620195 0.335757 0.310098
62 2 0.67612 0.272837 0.548175
77 1 0.743312 0.316846 0.442247
78 1 0.7373 0.351229 0.698198
93 1 0.762325 0.29212 0.477964
94 1 0.731203 0.332199 0.72268
109 1 0.761825 0.290507 0.472225
110 1 0.756745 0.352644 0.724023
141 1 0.665175 0.370912 0.467117
142 1 0.616936 0.324715 0.712851
149 1 0.589681 0.254158 0.249112
150 1 0.656094 0.242088 0.500486
157 1 0.624786 0.38355 0.37602
173 1 0.607097 0.219061 0.41223
174 1 0.674235 0.23281 0.639903
69 1 0.607586 0.369862 0.310962
85 1 0.618775 0.379276 0.369883
86 1 0.637633 0.332073 0.594374
118 1 0.705132 0.388136 0.566167
97 1 0.330608 0.445839 0.310298
153 1 0.409949 0.481014 0.376747
185 1 0.277487 0.407089 0.384262
186 1 0.285417 0.415498 0.640749
11 2 0.282875 0.542611 0.391768
12 2 0.29862 0.556412 0.639445
27 2 0.363974 0.518612 0.505858
33 2 0.405951 0.469812 0.459438
34 2 0.378701 0.481924 0.72815
65 1 0.375931 0.495724 0.279726
66 1 0.271629 0.410602 0.554163
81 1 0.234596 0.460104 0.363581
82 1 0.311957 0.477478 0.605725
129 1 0.234093 0.430178 0.328757
130 1 0.278976 0.412114 0.588354
139 1 0.289377 0.511788 0.434683
140 1 0.304266 0.590677 0.712659
171 1 0.377825 0.523714 0.36393
172 1 0.374042 0.455681 0.640731
113 1 0.288066 0.536349 0.334219
114 1 0.297562 0.517513 0.563066
164 1 0.255422 0.55356 0.527912
76 1 0.357132 0.570318 0.678391
154 1 0.417249 0.446515 0.639468
177 1 0.466469 0.433995 0.252149
178 1 0.479186 0.444855 0.517328
41 2 0.49467 0.424436 0.362584
57 2 0.484647 0.430433 0.313375
58 2 0.422551 0.500277 0.564664
166 1 0.465923 0.419984 0.503252
190 1 0.493206 0.417197 0.617898
181 1 0.585327 0.454372 0.27725
49 2 0.41637 0.492051 0.411923
50 2 0.440528 0.472458 0.68342
147 1 0.444427 0.446924 0.250037
148 1 0.421389 0.533757 0.549395
7 2 0.480448 0.551084 0.270811
8 2 0.487653 0.594163 0.520862
15 2 0.579479 0.475528 0.402044
16 2 0.556258 0.494055 0.645743
23 2 0.49027 0.588608 0.371842
24 2 0.449802 0.53446 0.612053
31 2 0.575292 0.48837 0.491641
32 2 0.494538 0.516028 0.757939
107 1 0.531807 0.493919 0.437582
108 1 0.514953 0.508587 0.720943
133 1 0.529327 0.537006 0.337469
134 1 0.530837 0.418865 0.550362
38 2 0.594163 0.413075 0.739754
54 2 0.600318 0.445062 0.690738
70 1 0.574881 0.393038 0.554692
143 1 0.584288 0.541887 0.459604
59 2 0.407518 0.57046 0.318606
104 1 0.54608 0.554536 0.571135
192 1 0.423627 0.555109 0.652653
183 1 0.583644 0.583401 0.253979
158 1 0.654968 0.415863 0.631183
182 1 0.679407 0.388384 0.528781
37 2 0.729646 0.480112 0.489165
53 2 0.685314 0.471491 0.44215
111 1 0.703969 0.581108 0.465273
117 1 0.692732 0.390243 0.340726
125 1 0.790972 0.398689 0.463314
126 1 0.708403 0.453198 0.720808
144 1 0.673077 0.552914 0.700231
151 1 0.665681 0.506937 0.253947
152 1 0.672381 0.405671 0.511775
175 1 0.698184 0.423319 0.392048
176 1 0.682577 0.458563 0.646238