ITEM: TIMESTEP
0
ITEM: NUMBER OF ATOMS
264
ITEM: BOX BOUNDS pp pp pp
0.0000000000000000e+00 9.5999999999999996e+00
0.0000000000000000e+00 9.5999999999999996e+00
0.0000000000000000e+00 3.1199999999999999e+01
ITEM: ATOMS id type xs ys zs
1 1 0 0.286269 0.0621689
25 1 0.495833 0.286269 0.0621689
33 2 0 0 0.0466987
69 2 0.247917 0.429404 0.0466987
71 2 0.495833 0 0.0466987
105 1 0 0.141094 0.124199
119 1 0.125726 0.358857 0.124199
141 1 0.495833 0.141094 0.124199
145 1 0.370107 0.358857 0.124199
168 2 0.247917 0.143135 0.0774006
185 1 0.247917 0 0
203 1 0.123958 0.214702 0
235 1 0 0.429404 0
237 1 0.495833 0.429404 0
241 1 0.371875 0.214702 0
35 2 0.991667 0 0.0466987
65 2 0.752083 0.429404 0.0466987
66 2 0.74375 0.429404 0.0466987
131 1 0.874274 0.358857 0.124199
143 1 0.621559 0.358857 0.124199
170 2 0.74375 0.143135 0.0774006
189 1 0.74375 0 0
193 1 0.876042 0.214702 0
195 1 0.867708 0.214702 0
245 1 0.619792 0.214702 0
3 1 0.247917 0.715674 0.0621689
36 2 0.495833 0.858809 0.0466987
72 2 0 0.858809 0.0466987
107 1 0.373643 0.788262 0.124199
121 1 0.122191 0.788262 0.124199
129 1 0.247917 0.570498 0.124199
166 2 0.495833 0.572539 0.0774006
182 2 0 0.572539 0.0774006
191 1 0.247917 0.858809 0
201 1 0.371875 0.644106 0
239 1 0.123958 0.644106 0
5 1 0.752083 0.715674 0.0621689
34 2 0.504167 0.858809 0.0466987
109 1 0.626357 0.788262 0.124199
117 1 0.752083 0.570498 0.124199
127 1 0.877809 0.788262 0.124199
187 1 0.752083 0.858809 0
197 1 0.628125 0.644106 0
199 1 0.619792 0.644106 0
243 1 0.876042 0.644106 0
8 1 0 0.286269 0.186229
28 1 0.495833 0.286269 0.186229
45 2 0 0 0.201699
80 2 0.247917 0.429404 0.201699
83 2 0.495833 0 0.201699
173 2 0.247917 0.143135 0.170997
207 1 0.247917 0 0.248397
213 1 0.123958 0.214702 0.248397
247 1 0.495833 0.429404 0.248397
248 1 0 0.429404 0.248397
249 1 0.371875 0.214702 0.248397
47 2 0.991667 0 0.201699
77 2 0.752083 0.429404 0.201699
78 2 0.74375 0.429404 0.201699
175 2 0.74375 0.143135 0.170997
205 1 0.74375 0 0.248397
211 1 0.876042 0.214702 0.248397
212 1 0.867708 0.214702 0.248397
251 1 0.619792 0.214702 0.248397
10 1 0.247917 0.715674 0.186229
48 2 0.495833 0.858809 0.201699
84 2 0 0.858809 0.201699
171 2 0.495833 0.572539 0.170997
183 2 0 0.572539 0.170997
206 1 0.247917 0.858809 0.248397
214 1 0.371875 0.644106 0.248397
250 1 0.123958 0.644106 0.248397
12 1 0.752083 0.715674 0.186229
46 2 0.504167 0.858809 0.201699
208 1 0.752083 0.858809 0.248397
209 1 0.628125 0.644106 0.248397
210 1 0.619792 0.644106 0.248397
252 1 0.876042 0.644106 0.248397
9 1 0.247917 0.143135 0.310566
41 2 0 0 0.295096
79 2 0.247917 0.429404 0.295096
81 2 0.495833 0 0.295096
112 1 0.122191 0.0705469 0.372596
124 1 0.370107 0.499951 0.372596
125 1 0.373643 0.0705469 0.372596
133 1 0.247917 0.288311 0.372596
149 1 0.125726 0.499951 0.372596
172 2 0 0.286269 0.325798
184 2 0.495833 0.286269 0.325798
11 1 0.74375 0.143135 0.310566
43 2 0.991667 0 0.295096
75 2 0.752083 0.429404 0.295096
76 2 0.74375 0.429404 0.295096
113 1 0.869476 0.0705469 0.372596
123 1 0.74375 0.288311 0.372596
132 1 0.618024 0.0705469 0.372596
134 1 0.621559 0.499951 0.372596
148 1 0.874274 0.499951 0.372596
7 1 0.495833 0.572539 0.310566
27 1 0 0.572539 0.310566
44 2 0.495833 0.858809 0.295096
82 2 0 0.858809 0.295096
111 1 0.495833 0.717715 0.372596
147 1 0 0.717715 0.372596
174 2 0.247917 0.715674 0.325798
42 2 0.504167 0.858809 0.295096
176 2 0.752083 0.715674 0.325798
16 1 0.247917 0.143135 0.434626
53 2 0 0 0.450096
90 2 0.247917 0.429404 0.450096
93 2 0.495833 0 0.450096
153 2 0 0.286269 0.419394
177 2 0.495833 0.286269 0.419394
215 1 0.247917 0 0.496795
224 1 0.123958 0.214702 0.496795
253 1 0 0.429404 0.496795
254 1 0.495833 0.429404 0.496795
256 1 0.371875 0.214702 0.496795
18 1 0.74375 0.143135 0.434626
55 2 0.991667 0 0.450096
87 2 0.752083 0.429404 0.450096
88 2 0.74375 0.429404 0.450096
217 1 0.74375 0 0.496795
219 1 0.876042 0.214702 0.496795
220 1 0.867708 0.214702 0.496795
258 1 0.619792 0.214702 0.496795
14 1 0.495833 0.572539 0.434626
30 1 0 0.572539 0.434626
56 2 0.495833 0.858809 0.450096
94 2 0 0.858809 0.450096
155 2 0.247917 0.715674 0.419394
218 1 0.247917 0.858809 0.496795
223 1 0.371875 0.644106 0.496795
255 1 0.123958 0.644106 0.496795
54 2 0.504167 0.858809 0.450096
157 2 0.752083 0.715674 0.419394
216 1 0.752083 0.858809 0.496795
221 1 0.628125 0.644106 0.496795
222 1 0.619792 0.644106 0.496795
257 1 0.876042 0.644106 0.496795
13 1 0 0.286269 0.558964
29 1 0.495833 0.286269 0.558964
49 2 0 0 0.543494
89 2 0.247917 0.429404 0.543494
91 2 0.495833 0 0.543494
114 1 0 0.141094 0.620994
136 1 0.125726 0.358857 0.620994
150 1 0.495833 0.141094 0.620994
152 1 0.370107 0.358857 0.620994
156 2 0.247917 0.143135 0.574196
51 2 0.991667 0 0.543494
85 2 0.752083 0.429404 0.543494
86 2 0.74375 0.429404 0.543494
140 1 0.874274 0.358857 0.620994
151 1 0.621559 0.358857 0.620994
158 2 0.74375 0.143135 0.574196
15 1 0.247917 0.715674 0.558964
52 2 0.495833 0.858809 0.543494
92 2 0 0.858809 0.543494
115 1 0.373643 0.788262 0.620994
137 1 0.122191 0.788262 0.620994
139 1 0.247917 0.570498 0.620994
154 2 0.495833 0.572539 0.574196
178 2 0 0.572539 0.574196
17 1 0.752083 0.715674 0.558964
50 2 0.504167 0.858809 0.543494
116 1 0.626357 0.788262 0.620994
135 1 0.752083 0.570498 0.620994
138 1 0.877809 0.788262 0.620994
20 1 0 0.286269 0.683023
32 1 0.495833 0.286269 0.683023
61 2 0 0 0.698494
100 2 0.247917 0.429404 0.698494
103 2 0.495833 0 0.698494
161 2 0.247917 0.143135 0.667792
227 1 0.247917 0 0.745192
233 1 0.123958 0.214702 0.745192
259 1 0.495833 0.429404 0.745192
260 1 0 0.429404 0.745192
261 1 0.371875 0.214702 0.745192
63 2 0.991667 0 0.698494
97 2 0.752083 0.429404 0.698494
98 2 0.74375 0.429404 0.698494
163 2 0.74375 0.143135 0.667792
225 1 0.74375 0 0.745192
231 1 0.876042 0.214702 0.745192
232 1 0.867708 0.214702 0.745192
263 1 0.619792 0.214702 0.745192
22 1 0.247917 0.715674 0.683023
64 2 0.495833 0.858809 0.698494
104 2 0 0.858809 0.698494
159 2 0.495833 0.572539 0.667792
179 2 0 0.572539 0.667792
226 1 0.247917 0.858809 0.745192
234 1 0.371875 0.644106 0.745192
262 1 0.123958 0.644106 0.745192
24 1 0.752083 0.715674 0.683023
62 2 0.504167 0.858809 0.698494
228 1 0.752083 0.858809 0.745192
229 1 0.628125 0.644106 0.745192
230 1 0.619792 0.644106 0.745192
264 1 0.876042 0.644106 0.745192
21 1 0.247917 0.143135 0.807361
57 2 0 0 0.791891
99 2 0.247917 0.429404 0.791891
101 2 0.495833 0 0.791891
108 1 0.122191 0.0705469 0.869391
120 1 0.370107 0.499951 0.869391
122 1 0.373643 0.0705469 0.869391
128 1 0.247917 0.288311 0.869391
146 1 0.125726 0.499951 0.869391
160 2 0 0.286269 0.822593
180 2 0.495833 0.286269 0.822593
23 1 0.74375 0.143135 0.807361
59 2 0.991667 0 0.791891
95 2 0.752083 0.429404 0.791891
96 2 0.74375 0.429404 0.791891
110 1 0.869476 0.0705469 0.869391
118 1 0.74375 0.288311 0.869391
126 1 0.618024 0.0705469 0.869391
130 1 0.621559 0.499951 0.869391
144 1 0.874274 0.499951 0.869391
19 1 0.495833 0.572539 0.807361
31 1 0 0.572539 0.807361
60 2 0.495833 0.858809 0.791891
102 2 0 0.858809 0.791891
106 1 0.495833 0.717715 0.869391
142 1 0 0.717715 0.869391
162 2 0.247917 0.715674 0.822593
58 2 0.504167 0.858809 0.791891
164 2 0.752083 0.715674 0.822593
4 1 0.247917 0.143135 0.931421
37 2 0 0 0.946891
70 2 0.247917 0.429404 0.946891
73 2 0.495833 0 0.946891
165 2 0 0.286269 0.916189
181 2 0.495833 0.286269 0.916189
186 1 0.247917 0 0.99359
204 1 0.123958 0.214702 0.99359
236 1 0 0.429404 0.99359
238 1 0.495833 0.429404 0.99359
242 1 0.371875 0.214702 0.99359
6 1 0.74375 0.143135 0.931421
39 2 0.991667 0 0.946891
67 2 0.752083 0.429404 0.946891
68 2 0.74375 0.429404 0.946891
190 1 0.74375 0 0.99359
194 1 0.876042 0.214702 0.99359
196 1 0.867708 0.214702 0.99359
246 1 0.619792 0.214702 0.99359
2 1 0.495833 0.572539 0.931421
26 1 0 0.572539 0.931421
40 2 0.495833 0.858809 0.946891
74 2 0 0.858809 0.946891
167 2 0.247917 0.715674 0.916189
192 1 0.247917 0.858809 0.99359
202 1 0.371875 0.644106 0.99359
240 1 0.123958 0.644106 0.99359
38 2 0.504167 0.858809 0.946891
169 2 0.752083 0.715674 0.916189
188 1 0.752083 0.858809 0.99359
198 1 0.628125 0.644106 0.99359
200 1 0.619792 0.644106 0.99359
244 1 0.876042 0.644106 0.99359
ITEM: TIMESTEP
100
ITEM: NUMBER OF ATOMS
264
ITEM: BOX BOUNDS pp pp pp
0.0000000000000000e+00 9.5999999999999996e+00
0.0000000000000000e+00 9.5999999999999996e+00
0.0000000000000000e+00 3.1199999999999999e+01
ITEM: ATOMS id type xs ys zs
1 1 0.0998991 0.290491 0.0416436
25 1 0.500711 0.320143 0.0495036
33 2 -0.00772347 0.0244584 0.132881
69 2 0.289508 0.428917 0.0120524
71 2 0.458683 0.0723116 0.0226052
105 1 0.987283 0.297467 0.143908
119 1 0.0270329 0.311049 0.129469
141 1 0.489612 0.0729364 0.138761
145 1 0.429267 0.348585 0.151171
168 2 0.280032 0.218936 0.0864585
185 1 0.192192 0.0271643 0.0224787
203 1 0.0885393 0.308642 0.0404549
235 1 0.0919543 0.302029 0.0404592
237 1 0.495526 0.322265 0.0486724
241 1 0.495408 0.321837 0.0482988
35 2 0.941425 0.124775 0.0487877
65 2 0.907373 0.381443 0.991007
66 2 0.730186 0.382252 0.0855934
131 1 0.966905 0.302986 0.121887
143 1 0.500904 0.295384 0.13371
170 2 0.689356 0.0411834 0.0897428
189 1 0.712505 0.0205377 0.012782
193 1 0.0961373 0.299855 0.03998
195 1 0.686363 0.19536 0.0229832
245 1 0.701876 0.209889 0.0259484
3 1 0.276087 0.705654 0.0463364
36 2 0.311165 0.903497 0.103954
72 2 0.0213419 0.82703 0.0644506
107 1 0.198448 0.667757 0.134359
121 1 0.191788 0.671636 0.133751
129 1 0.203396 0.631488 0.128429
166 2 0.422955 0.538785 0.0924362
182 2 0.0573512 0.534469 0.0605628
191 1 0.28089 0.757184 0.0412074
201 1 0.361346 0.687145 0.0239616
239 1 0.243841 0.694034 0.0306922
5 1 0.807201 0.636735 0.066524
34 2 0.579304 0.788868 0.0644417
109 1 0.698467 0.708282 0.13174
117 1 0.684518 0.662511 0.127221
127 1 0.803436 0.797831 0.118141
187 1 0.809837 0.64171 0.0506532
197 1 0.802558 0.616078 0.0491114
199 1 0.383932 0.689894 0.0253953
243 1 0.809309 0.662908 0.0450592
8 1 0.994547 0.291856 0.148924
28 1 0.455409 0.328225 0.141642
45 2 0.15688 0.857179 0.188808
80 2 0.198932 0.468893 0.189076
83 2 0.501515 0.229042 0.216479
173 2 0.228858 0.176661 0.174609
207 1 0.312335 0.154192 0.270459
213 1 0.12376 0.27274 0.245913
247 1 0.427297 0.477644 0.2226
248 1 0.0401427 0.437815 0.275338
249 1 0.275061 0.162764 0.265349
47 2 0.961276 0.0768033 0.226974
77 2 0.902032 0.401389 0.217572
78 2 0.642048 0.493252 0.179471
175 2 0.746888 0.20422 0.161807
205 1 0.724572 0.11034 0.238651
211 1 0.111723 0.279991 0.247124
212 1 0.748443 0.223867 0.250652
251 1 0.752346 0.221835 0.249225
10 1 0.186342 0.665645 0.141879
48 2 0.395398 0.963342 0.21977
84 2 0.917447 0.735416 0.204817
171 2 0.44029 0.700975 0.169543
183 2 0.934538 0.570979 0.135567
206 1 0.236596 0.715044 0.252005
214 1 0.36909 0.597124 0.240621
250 1 0.187052 0.672965 0.248001
12 1 0.710636 0.698034 0.140803
46 2 0.678847 0.912056 0.182146
208 1 0.780679 0.846962 0.257946
209 1 0.763743 0.623479 0.255801
210 1 0.386609 0.560385 0.237375
252 1 0.761669 0.619112 0.254171
9 1 0.301983 0.155656 0.276477
41 2 0.131914 0.939879 0.286692
79 2 0.272036 0.432563 0.289161
81 2 0.601587 0.0842089 0.299004
112 1 0.195367 0.0668962 0.369492
124 1 0.462029 0.531724 0.376031
125 1 0.25887 0.156977 0.378397
133 1 0.222388 0.310705 0.374463
149 1 0.109789 0.47011 0.380449
172 2 0.0598994 0.221098 0.319955
184 2 0.442742 0.275533 0.341057
11 1 0.759009 0.189425 0.369993
43 2 0.862444 -5.49226e-05 0.321333
75 2 0.827707 0.407263 0.321887
76 2 0.597296 0.435591 0.275808
113 1 0.827036 0.18125 0.375581
123 1 0.786337 0.196093 0.374913
132 1 0.614206 0.0446164 0.378296
134 1 0.589969 0.513534 0.357169
148 1 0.956598 0.596748 0.377686
7 1 0.49767 0.584493 0.332053
27 1 0.0535696 0.510376 0.364819
44 2 0.388941 0.941487 0.324027
82 2 0.979522 0.677329 0.299841
111 1 0.492333 0.731559 0.379791
147 1 1.00493 0.82507 0.376003
174 2 0.26161 0.681237 0.332161
42 2 0.531812 0.75524 0.26145
176 2 0.706038 0.753651 0.333981
16 1 0.312227 0.161718 0.438226
53 2 0.130323 0.933379 0.4556
90 2 0.295869 0.409778 0.443125
93 2 0.560924 0.0799514 0.457696
153 2 0.0473961 0.197273 0.417898
177 2 0.574889 0.320015 0.41373
215 1 0.318168 0.0870775 0.484897
224 1 0.101285 0.303716 0.490355
253 1 0.0734675 0.351743 0.481123
254 1 0.422254 0.322472 0.512188
256 1 0.357389 0.191741 0.487899
18 1 0.780695 0.184024 0.381469
55 2 0.825605 0.96492 0.422225
87 2 0.856803 0.398167 0.422113
88 2 0.591141 0.491903 0.487243
217 1 0.724366 0.00934091 0.508611
219 1 0.0996336 0.325698 0.485372
220 1 0.732382 0.261516 0.505186
258 1 0.703731 0.233339 0.500226
14 1 0.493354 0.586143 0.403776
30 1 0.0280122 0.542132 0.383304
56 2 0.379719 0.943968 0.408591
94 2 1.00637 0.638686 0.456108
155 2 0.25367 0.670671 0.417104
218 1 0.216762 0.716394 0.503803
223 1 0.331819 0.6175 0.497441
255 1 0.190373 0.682597 0.513412
54 2 0.508754 0.790587 0.478817
157 2 0.724548 0.671004 0.416473
216 1 0.769565 0.764433 0.493756
221 1 0.741828 0.700133 0.504052
222 1 0.342937 0.611022 0.499802
257 1 0.75822 0.682695 0.499089
13 1 -0.00680492 0.298817 0.58918
29 1 0.427204 0.361154 0.60389
49 2 0.0688895 0.947412 0.606429
89 2 0.21592 0.448688 0.545664
91 2 0.519881 0.132999 0.552305
114 1 1.00257 0.190255 0.633996
136 1 0.0424224 0.326849 0.603285
150 1 0.528093 0.0352232 0.623864
152 1 0.399175 0.411874 0.616306
156 2 0.201803 0.163119 0.549432
51 2 0.94737 0.122924 0.504421
85 2 0.889688 0.455479 0.52338
86 2 0.663197 0.402673 0.577826
140 1 0.910065 0.333731 0.598633
151 1 0.523986 0.254223 0.629438
158 2 0.808021 0.0886721 0.582952
15 1 0.218094 0.698523 0.518396
52 2 0.319165 0.892316 0.55265
92 2 0.968307 0.82952 0.529276
115 1 0.258704 0.768332 0.624791
137 1 0.211094 0.741603 0.642053
139 1 0.262233 0.529433 0.62265
154 2 0.452557 0.627523 0.569966
178 2 0.0412233 0.625794 0.589823
17 1 0.766119 0.65846 0.62175
50 2 0.651766 0.831408 0.56508
116 1 0.707913 0.661965 0.623943
135 1 0.737882 0.650391 0.623431
138 1 0.854885 0.800183 0.61132
20 1 0.0141429 0.223645 0.661608
32 1 0.485329 0.336218 0.63706
61 2 0.139414 0.978581 0.68952
100 2 0.217274 0.431546 0.693943
103 2 0.477573 0.233029 0.7096
161 2 0.266716 0.195446 0.63811
227 1 0.303843 0.113532 0.753022
233 1 0.13957 0.217071 0.732453
259 1 0.434911 0.51023 0.732658
260 1 0.0843222 0.486215 0.768486
261 1 0.271478 0.157957 0.746769
63 2 0.901849 0.0424617 0.732223
97 2 0.900921 0.352901 0.733179
98 2 0.653082 0.474383 0.678253
163 2 0.757021 0.194422 0.659859
225 1 0.663174 0.062889 0.725446
231 1 0.121452 0.213858 0.733247
232 1 0.707466 0.193675 0.737149
263 1 0.70841 0.197022 0.736363
22 1 0.200959 0.694309 0.695167
64 2 0.401883 0.934077 0.684746
104 2 0.945157 0.752782 0.685633
159 2 0.44847 0.650057 0.663139
179 2 0.949695 0.482068 0.657936
226 1 0.225638 0.746714 0.724597
234 1 0.380817 0.553223 0.743161
262 1 0.167969 0.668388 0.728483
24 1 0.754978 0.657866 0.63148
62 2 0.687617 0.883715 0.665649
228 1 0.777014 0.81936 0.749174
229 1 0.780189 0.627671 0.747976
230 1 0.409878 0.548378 0.734701
264 1 0.755012 0.625832 0.741883
21 1 0.319445 0.13042 0.762456
57 2 0.152104 0.938676 0.778654
99 2 0.300787 0.365936 0.790116
101 2 0.583559 0.0800003 0.794497
108 1 0.228188 0.186107 0.874356
120 1 0.410519 0.5257 0.867023
122 1 0.255188 0.147848 0.86912
128 1 0.236974 0.181871 0.867105
146 1 0.0961715 0.482174 0.858743
160 2 0.0545807 0.217436 0.809703
180 2 0.486651 0.278065 0.852354
23 1 0.758104 0.223572 0.853832
59 2 0.854202 0.998108 0.824809
95 2 0.865558 0.453091 0.820654
96 2 0.618382 0.420015 0.775444
110 1 0.762553 0.0963319 0.891681
118 1 0.733167 0.265155 0.859312
126 1 0.649647 0.0442816 0.875613
130 1 0.56977 0.53403 0.851491
144 1 0.965229 0.657863 0.863514
19 1 0.518984 0.554221 0.843335
31 1 0.102829 0.506808 0.846217
60 2 0.36671 0.962635 0.833556
102 2 0.987081 0.712939 0.782909
106 1 0.528217 0.531041 0.848789
142 1 0.949901 0.689575 0.863306
162 2 0.288309 0.663116 0.805544
58 2 0.5214 0.779223 0.750848
164 2 0.698846 0.732649 0.821912
4 1 0.186 0.0993846 0.948711
37 2 0.0884396 0.948823 0.880625
70 2 0.25453 0.377327 0.919343
73 2 0.432829 0.0646938 0.9259
165 2 0.973031 0.266814 0.90014
181 2 0.550719 0.358516 0.929035
186 1 0.184068 0.0512766 0.947855
204 1 0.121586 0.218965 0.971873
236 1 0.0504171 0.525234 0.937553
238 1 0.410446 0.583092 0.952208
242 1 0.276599 0.200821 0.978471
6 1 0.706406 0.174662 0.95106
39 2 0.923871 0.0496874 0.961322
67 2 0.775159 0.520177 0.905372
68 2 0.610206 0.503732 0.00415298
190 1 0.658835 0.156201 0.949931
194 1 0.121309 0.215297 0.972611
196 1 0.759559 0.22037 0.942911
246 1 0.747998 0.228834 0.955199
2 1 0.414122 0.582357 0.944744
26 1 0.0271207 0.517985 0.934919
40 2 0.488784 0.767758 0.88623
74 2 0.0461962 0.764662 0.976723
167 2 0.199901 0.69103 0.900566
192 1 0.292771 0.859737 0.972872
202 1 0.378833 0.600413 0.956354
240 1 0.111739 0.531756 0.962506
38 2 0.552006 0.808017 0.970798
169 2 0.795065 0.839088 0.909333
188 1 0.798745 0.817121 0.989428
198 1 0.820315 0.643676 0.972799
200 1 0.417823 0.586053 0.958307
244 1 0.785635 0.670609 0.968834
ITEM: TIMESTEP
111
ITEM: NUMBER OF ATOMS
264
ITEM: BOX BOUNDS pp pp pp
0.0000000000000000e+00 9.5999999999999996e+00
0.0000000000000000e+00 9.5999999999999996e+00
0.0000000000000000e+00 3.1199999999999999e+01
ITEM: ATOMS id type xs ys zs
1 1 0.104936 0.298374 0.0403578
25 1 0.502471 0.318059 0.0495823
33 2 0.989682 0.0255668 0.132957
69 2 0.295587 0.42881 0.0111751
71 2 0.456163 0.071925 0.022592
105 1 0.988296 0.293157 0.143701
119 1 0.0249877 0.312543 0.130159
141 1 0.486802 0.072537 0.140698
145 1 0.429356 0.349777 0.151019
168 2 0.28147 0.219208 0.0867915
185 1 0.189224 0.0294794 0.0229808
203 1 0.08875 0.292927 0.0407999
235 1 0.0926968 0.303847 0.0394745
237 1 0.497427 0.319207 0.0485877
241 1 0.496725 0.320878 0.0482738
35 2 0.934343 0.131641 0.0499671
65 2 0.909112 0.376835 0.991034
66 2 0.731924 0.379845 0.0848586
131 1 0.970373 0.302542 0.122109
143 1 0.500577 0.296752 0.134285
170 2 0.685606 0.0453117 0.0892603
189 1 0.712488 0.0212943 0.013507
193 1 0.0985374 0.303139 0.0405869
195 1 0.687555 0.197051 0.0224088
245 1 0.699305 0.206428 0.0229108
3 1 0.275773 0.708873 0.0456909
36 2 0.308066 0.906144 0.103297
72 2 0.0164865 0.830159 0.0635864
107 1 0.198104 0.665353 0.132531
121 1 0.192445 0.667964 0.131806
129 1 0.200777 0.640243 0.128776
166 2 0.418473 0.53817 0.0923195
182 2 0.0617504 0.534933 0.0605232
191 1 0.280797 0.75729 0.0411429
201 1 0.361726 0.689538 0.0235657
239 1 0.24603 0.69697 0.0308999
5 1 0.810561 0.634282 0.0643498
34 2 0.578568 0.786032 0.0643322
109 1 0.697146 0.710917 0.131944
117 1 0.683505 0.663207 0.127179
127 1 0.799891 0.799503 0.117943
187 1 0.811653 0.639962 0.0512706
197 1 0.809157 0.620408 0.0483346
199 1 0.381121 0.687302 0.0252807
243 1 0.806755 0.656558 0.0481596
8 1 0.99579 0.298924 0.149663
28 1 0.455592 0.32759 0.14239
45 2 0.153037 0.85098 0.187457
80 2 0.198692 0.471502 0.188905
83 2 0.499122 0.231523 0.218207
173 2 0.227232 0.175848 0.174633
207 1 0.308953 0.156882 0.273343
213 1 0.123294 0.286256 0.241841
247 1 0.426258 0.488255 0.22311
248 1 0.0401482 0.438488 0.275849
249 1 0.27764 0.158185 0.264146
47 2 0.960963 0.0776513 0.227539
77 2 0.902482 0.400934 0.217848
78 2 0.643225 0.493773 0.179836
175 2 0.747201 0.205691 0.162178
205 1 0.723471 0.112455 0.237873
211 1 0.107458 0.270161 0.248831
212 1 0.748757 0.224129 0.250195
251 1 0.752111 0.222473 0.247926
10 1 0.189225 0.665461 0.13833
48 2 0.392607 0.965744 0.220148
84 2 0.914209 0.733857 0.205474
171 2 0.439171 0.704622 0.168082
183 2 0.932406 0.573276 0.134216
206 1 0.238592 0.712336 0.251227
214 1 0.367013 0.589924 0.239122
250 1 0.190048 0.674055 0.248478
12 1 0.707423 0.701034 0.140285
46 2 0.679282 0.913868 0.182015
208 1 0.780016 0.851417 0.259225
209 1 0.763057 0.620689 0.257814
210 1 0.395492 0.558679 0.234876
252 1 0.761188 0.623005 0.254258
9 1 0.304515 0.153398 0.276038
41 2 0.132858 0.935763 0.285585
79 2 0.272477 0.4311 0.287996
81 2 0.608063 0.0841519 0.299242
112 1 0.192033 0.0608303 0.368889
124 1 0.466768 0.53192 0.376046
125 1 0.25651 0.154909 0.37764
133 1 0.220557 0.311719 0.374142
149 1 0.109487 0.470118 0.380601
172 2 0.0608595 0.220551 0.319217
184 2 0.44127 0.274882 0.341369
11 1 0.762481 0.187652 0.370995
43 2 0.868631 0.996593 0.323588
75 2 0.828446 0.405755 0.322818
76 2 0.599338 0.434707 0.276085
113 1 0.821082 0.187786 0.37501
123 1 0.788306 0.19233 0.375501
132 1 0.614 0.0473449 0.378643
134 1 0.586602 0.513887 0.356512
148 1 0.954573 0.597621 0.378469
7 1 0.498811 0.579362 0.332679
27 1 0.0542974 0.509376 0.365449
44 2 0.390801 0.9428 0.323503
82 2 0.979383 0.676113 0.300505
111 1 0.49015 0.727701 0.380427
147 1 0.0107979 0.825114 0.376246
174 2 0.263963 0.67902 0.332213
42 2 0.5315 0.755441 0.261252
176 2 0.702659 0.754683 0.334143
16 1 0.312181 0.159632 0.440269
53 2 0.132989 0.932983 0.456683
90 2 0.295741 0.407801 0.443394
93 2 0.565919 0.0810973 0.458234
153 2 0.0466462 0.19522 0.416962
177 2 0.578343 0.320842 0.413382
215 1 0.322633 0.0865917 0.484874
224 1 0.100068 0.310327 0.487675
253 1 0.073972 0.352246 0.48157
254 1 0.419603 0.320139 0.512009
256 1 0.359061 0.189339 0.48696
18 1 0.783075 0.183836 0.380764
55 2 0.825603 0.96218 0.422158
87 2 0.859061 0.397937 0.423023
88 2 0.590253 0.490966 0.487952
217 1 0.723179 0.00233778 0.508919
219 1 0.0938717 0.323244 0.486035
220 1 0.724781 0.254379 0.506014
258 1 0.70401 0.248315 0.502076
14 1 0.490102 0.583456 0.40427
30 1 0.0269148 0.54428 0.382902
56 2 0.380937 0.944146 0.40809
94 2 0.00967446 0.63971 0.456036
155 2 0.252751 0.672672 0.417259
218 1 0.21747 0.711089 0.502555
223 1 0.330887 0.61732 0.497782
255 1 0.196064 0.689905 0.514127
54 2 0.508074 0.792945 0.478465
157 2 0.723436 0.66709 0.416917
216 1 0.761328 0.758237 0.494262
221 1 0.739883 0.693666 0.503365
222 1 0.340522 0.612836 0.498792
257 1 0.766435 0.693571 0.498962
13 1 0.989551 0.301566 0.588621
29 1 0.427395 0.364727 0.603861
49 2 0.0671551 0.949977 0.607176
89 2 0.21637 0.449055 0.545488
91 2 0.517739 0.132538 0.552314
114 1 0.00224215 0.195393 0.634159
136 1 0.0410481 0.32526 0.601728
150 1 0.529408 0.0350399 0.623808
152 1 0.399809 0.413411 0.616538
156 2 0.19577 0.161371 0.547297
51 2 0.941168 0.125814 0.503098
85 2 0.888232 0.457469 0.523646
86 2 0.664816 0.402694 0.578738
140 1 0.917584 0.329886 0.598618
151 1 0.523205 0.255391 0.629511
158 2 0.809495 0.0887548 0.582624
15 1 0.216099 0.69264 0.518504
52 2 0.317545 0.893455 0.553516
92 2 0.970008 0.8334 0.529053
115 1 0.256104 0.770977 0.62562
137 1 0.209629 0.744886 0.642702
139 1 0.263263 0.522874 0.621826
154 2 0.449917 0.627398 0.568841
178 2 0.0446931 0.627891 0.58947
17 1 0.767266 0.65895 0.622361
50 2 0.650275 0.830776 0.565733
116 1 0.709655 0.640536 0.62028
135 1 0.747742 0.672781 0.626462
138 1 0.855584 0.801075 0.610423
20 1 0.0144926 0.218817 0.66279
32 1 0.487121 0.337028 0.637239
61 2 0.134965 0.986057 0.690529
100 2 0.216967 0.435078 0.694172
103 2 0.472104 0.238345 0.710207
161 2 0.265255 0.196281 0.636087
227 1 0.297691 0.105744 0.753273
233 1 0.139614 0.221123 0.734062
259 1 0.433347 0.517203 0.733353
260 1 0.0863133 0.485636 0.76946
261 1 0.267367 0.154739 0.746436
63 2 0.904005 0.039817 0.732097
97 2 0.903532 0.355459 0.732907
98 2 0.651995 0.474716 0.678828
163 2 0.755776 0.195765 0.659719
225 1 0.653725 0.0628509 0.723924
231 1 0.123811 0.205557 0.731454
232 1 0.709341 0.175756 0.742505
263 1 0.701253 0.216354 0.729969
22 1 0.203148 0.697854 0.696677
64 2 0.402307 0.93874 0.684987
104 2 0.944965 0.750432 0.685298
159 2 0.448556 0.651285 0.662316
179 2 0.9497 0.478393 0.656778
226 1 0.226773 0.745948 0.724253
234 1 0.38994 0.551872 0.742381
262 1 0.169516 0.67307 0.727918
24 1 0.756466 0.655499 0.631236
62 2 0.689619 0.884449 0.665377
228 1 0.774639 0.817552 0.74877
229 1 0.777389 0.626313 0.747542
230 1 0.409108 0.542392 0.736064
264 1 0.758039 0.626785 0.742613
21 1 0.329449 0.129445 0.759796
57 2 0.152568 0.937383 0.77954
99 2 0.304465 0.362408 0.789629
101 2 0.585407 0.0797986 0.794605
108 1 0.231077 0.176362 0.873151
120 1 0.410153 0.522826 0.866943
122 1 0.2493 0.158254 0.870646
128 1 0.237344 0.175272 0.867869
146 1 0.0977125 0.481496 0.858158
160 2 0.0560998 0.217044 0.809818
180 2 0.482947 0.271625 0.851897
23 1 0.755795 0.226672 0.852787
59 2 0.856752 0.995876 0.825447
95 2 0.867022 0.453957 0.821156
96 2 0.618102 0.419424 0.776208
110 1 0.758929 0.0978048 0.892587
118 1 0.739517 0.264725 0.859741
126 1 0.64709 0.0425773 0.875766
130 1 0.569127 0.527524 0.850861
144 1 0.960992 0.664287 0.863201
19 1 0.518726 0.546918 0.84264
31 1 0.10571 0.506421 0.846211
60 2 0.36904 0.958584 0.833683
102 2 0.98765 0.713627 0.782719
106 1 0.533186 0.536938 0.851466
142 1 0.947906 0.688785 0.862395
162 2 0.28915 0.658982 0.805221
58 2 0.52054 0.778408 0.749991
164 2 0.697681 0.733629 0.822052
4 1 0.182183 0.0975631 0.948667
37 2 0.0901675 0.947955 0.881497
70 2 0.253404 0.375993 0.918329
73 2 0.429992 0.0621958 0.925377
165 2 0.973284 0.267118 0.900429
181 2 0.552648 0.36164 0.92936
186 1 0.180594 0.0549872 0.948388
204 1 0.119903 0.216935 0.972353
236 1 0.0503586 0.519424 0.937385
238 1 0.413735 0.588271 0.952894
242 1 0.274111 0.199604 0.978117
6 1 0.702652 0.186689 0.950562
39 2 0.923332 0.0498597 0.963217
67 2 0.770198 0.518894 0.905359
68 2 0.615022 0.502803 0.00429145
190 1 0.666046 0.139084 0.952368
194 1 0.122455 0.216582 0.972749
196 1 0.749319 0.23281 0.943203
246 1 0.749121 0.224786 0.955097
2 1 0.417201 0.590098 0.948414
26 1 0.025288 0.522541 0.93485
40 2 0.488869 0.762236 0.887533
74 2 0.0508248 0.765145 0.976419
167 2 0.201903 0.690597 0.900727
192 1 0.292918 0.862567 0.973246
202 1 0.381119 0.594376 0.955246
240 1 0.106391 0.532452 0.961302
38 2 0.55358 0.810004 0.971705
169 2 0.794782 0.840771 0.909594
188 1 0.801256 0.813853 0.991136
198 1 0.820975 0.645542 0.974014
200 1 0.419113 0.587731 0.958148
244 1 0.789189 0.672105 0.970585
