ITEM: TIMESTEP
0
ITEM: NUMBER OF ATOMS
192
ITEM: BOX BOUNDS pp pp pp
-7.2437509999999996e+00 1.9956250000000001e+01
-7.2437509999999996e+00 1.9956250000000001e+01
-7.2437509999999996e+00 1.9956250000000001e+01
ITEM: ATOMS id type xs ys zs
137 1 0.363692 0.265919 0.363108
138 1 0.36072 0.266728 0.617568
177 1 0.386529 0.268624 0.382448
178 1 0.384082 0.274607 0.63047
70 1 0.491108 0.249425 0.487082
89 1 0.476388 0.247689 0.47753
90 1 0.501916 0.259617 0.727076
61 2 0.513189 0.274003 0.392084
62 2 0.541654 0.280239 0.646999
94 1 0.654612 0.217659 0.664974
141 1 0.611165 0.27116 0.381923
181 1 0.611169 0.271049 0.381458
182 1 0.628022 0.257874 0.615123
93 1 0.736639 0.267332 0.506048
73 1 0.270072 0.361918 0.366528
74 1 0.264473 0.353111 0.623422
121 1 0.272588 0.377261 0.38101
122 1 0.27367 0.379531 0.637464
26 2 0.276348 0.406762 0.545535
65 1 0.357584 0.355787 0.277585
66 1 0.315794 0.318902 0.525301
1 2 0.36484 0.360625 0.372298
2 2 0.359665 0.362242 0.603879
25 2 0.30701 0.426704 0.308174
42 2 0.412211 0.286817 0.53913
57 2 0.305786 0.303198 0.433229
58 2 0.318533 0.3109 0.68664
113 1 0.352726 0.376145 0.476398
114 1 0.357061 0.391541 0.713591
129 1 0.357902 0.356265 0.278107
130 1 0.327428 0.329205 0.518814
145 1 0.375788 0.354327 0.476544
146 1 0.39339 0.355919 0.720901
185 1 0.38248 0.381323 0.282391
186 1 0.409932 0.384091 0.518318
69 1 0.522472 0.328809 0.30181
142 1 0.553663 0.308275 0.549048
10 2 0.431989 0.421054 0.664605
41 2 0.431108 0.304929 0.308
29 2 0.551733 0.413841 0.269761
30 2 0.534197 0.413232 0.544886
33 2 0.487886 0.338942 0.477219
34 2 0.494502 0.348677 0.71457
77 1 0.502943 0.362107 0.330242
78 1 0.500091 0.330211 0.577886
81 1 0.472343 0.361154 0.381662
82 1 0.451051 0.320508 0.631547
125 1 0.502348 0.381573 0.392044
126 1 0.532943 0.420552 0.647978
161 1 0.499053 0.366545 0.330596
162 1 0.44014 0.414275 0.5697
117 1 0.563416 0.413345 0.445846
134 1 0.566726 0.32589 0.527446
5 2 0.586472 0.358491 0.367178
6 2 0.609489 0.359628 0.60653
13 2 0.665871 0.418581 0.425302
14 2 0.699825 0.403095 0.664527
45 2 0.681798 0.317881 0.337809
46 2 0.648963 0.28809 0.526315
86 1 0.704063 0.334709 0.596498
118 1 0.594987 0.351959 0.70032
133 1 0.621442 0.352123 0.276279
149 1 0.661465 0.322841 0.433793
150 1 0.599187 0.348457 0.700528
166 1 0.685641 0.40695 0.568899
189 1 0.639626 0.388059 0.292017
190 1 0.658187 0.408531 0.537064
38 2 0.673228 0.298815 0.683825
85 1 0.733463 0.355618 0.404601
165 1 0.730422 0.39445 0.360433
37 2 0.727109 0.359081 0.499299
68 1 0.262362 0.49276 0.505953
153 1 0.25346 0.4713 0.478907
154 1 0.264884 0.493989 0.732513
60 2 0.281953 0.538619 0.656114
67 1 0.329073 0.515919 0.325494
17 2 0.350352 0.468628 0.492819
18 2 0.354704 0.48605 0.712703
43 2 0.42533 0.541762 0.301278
44 2 0.39434 0.5485 0.550891
59 2 0.290451 0.526454 0.415535
97 1 0.391264 0.46229 0.347373
98 1 0.39157 0.45832 0.585123
105 1 0.346758 0.458 0.389755
106 1 0.317979 0.452717 0.628339
139 1 0.344599 0.506582 0.339207
140 1 0.315603 0.496024 0.578486
179 1 0.40265 0.517458 0.407807
180 1 0.422786 0.535808 0.665706
76 1 0.302663 0.561434 0.56777
132 1 0.310401 0.561835 0.503938
147 1 0.385121 0.570202 0.45731
84 1 0.424568 0.545773 0.653464
9 2 0.430574 0.42971 0.434049
49 2 0.491627 0.461536 0.34748
50 2 0.485524 0.497371 0.59845
63 2 0.533092 0.532871 0.42704
64 2 0.532897 0.534034 0.689122
71 1 0.514242 0.505231 0.267099
72 1 0.543812 0.546732 0.538481
91 1 0.432389 0.525975 0.453867
92 1 0.438646 0.521061 0.680147
157 1 0.52882 0.437681 0.445421
158 1 0.510943 0.444879 0.715395
169 1 0.472618 0.467682 0.254229
170 1 0.457989 0.481118 0.509745
110 1 0.541645 0.429742 0.646651
143 1 0.548964 0.543713 0.331192
144 1 0.558842 0.545684 0.55643
79 1 0.524073 0.556583 0.33265
135 1 0.569994 0.559603 0.248215
136 1 0.558287 0.562917 0.531543
21 2 0.608627 0.480415 0.494634
22 2 0.606014 0.446671 0.708868
47 2 0.639213 0.53588 0.300958
48 2 0.657856 0.559632 0.539449
95 1 0.673353 0.532785 0.440386
96 1 0.688625 0.495358 0.69322
101 1 0.627316 0.44258 0.327165
102 1 0.634819 0.448773 0.580018
109 1 0.574285 0.448839 0.406898
174 1 0.705892 0.459061 0.508966
183 1 0.651407 0.529678 0.41942
184 1 0.649061 0.51898 0.661392
151 1 0.651377 0.548955 0.436686
173 1 0.717162 0.501173 0.270537
53 2 0.7149 0.487076 0.359496
54 2 0.717925 0.48672 0.600364
75 1 0.271001 0.612212 0.360106
123 1 0.274563 0.629092 0.373561
124 1 0.26333 0.62705 0.625612
156 1 0.226816 0.702147 0.660195
3 2 0.360985 0.596023 0.371498
4 2 0.363719 0.614201 0.62839
12 2 0.403812 0.70974 0.675898
27 2 0.323608 0.686728 0.329898
28 2 0.300034 0.649569 0.537712
100 1 0.394195 0.691529 0.580938
108 1 0.335351 0.707737 0.609537
115 1 0.329651 0.664036 0.442053
116 1 0.341637 0.597461 0.717161
131 1 0.359153 0.614474 0.278653
148 1 0.347356 0.59122 0.717042
187 1 0.395871 0.63714 0.292922
188 1 0.40923 0.653822 0.550477
164 1 0.416741 0.65241 0.554666
20 2 0.299907 0.676045 0.69706
11 2 0.428581 0.672569 0.422748
31 2 0.541474 0.634162 0.290569
32 2 0.562181 0.65565 0.536596
35 2 0.475891 0.60014 0.494579
36 2 0.446874 0.610041 0.71431
80 1 0.536296 0.572989 0.565318
83 1 0.452868 0.581218 0.397976
127 1 0.533866 0.656381 0.429315
128 1 0.520615 0.641479 0.659988
159 1 0.5336 0.666421 0.439197
160 1 0.497745 0.690518 0.694153
163 1 0.446132 0.637483 0.326727
171 1 0.493305 0.706297 0.266741
172 1 0.467637 0.700389 0.507898
119 1 0.541902 0.655523 0.436563
120 1 0.53888 0.606654 0.747552
51 2 0.506441 0.710213 0.357061
52 2 0.482468 0.707075 0.602033
7 2 0.610423 0.612559 0.380959
8 2 0.603424 0.598169 0.627161
15 2 0.701811 0.68465 0.375892
16 2 0.681625 0.678331 0.635637
87 1 0.706278 0.586952 0.370975
88 1 0.707003 0.581928 0.621274
103 1 0.608207 0.704077 0.342922
104 1 0.661919 0.665358 0.538534
111 1 0.606065 0.709116 0.358961
112 1 0.582967 0.699876 0.621179
152 1 0.592682 0.584359 0.739592
167 1 0.685744 0.620615 0.310328
168 1 0.66767 0.659794 0.538444
175 1 0.706599 0.707423 0.199011
191 1 0.632179 0.627764 0.278955
192 1 0.662306 0.660104 0.535253
39 2 0.708354 0.61756 0.4627
40 2 0.6806 0.591477 0.710338
23 2 0.622474 0.701969 0.456017
24 2 0.59251 0.673167 0.711111
55 2 0.67349 0.708728 0.277149
155 1 0.278997 0.720276 0.484039
99 1 0.407673 0.727417 0.351231
107 1 0.352629 0.72674 0.407019
19 2 0.369068 0.724664 0.501566
176 1 0.721961 0.716681 0.462781
56 2 0.722885 0.732458 0.553855
ITEM: TIMESTEP
100
ITEM: NUMBER OF ATOMS
192
ITEM: BOX BOUNDS pp pp pp
-7.2437509999999996e+00 1.9956250000000001e+01
-7.2437509999999996e+00 1.9956250000000001e+01
-7.2437509999999996e+00 1.9956250000000001e+01
ITEM: ATOMS id type xs ys zs
137 1 0.36231 0.265922 0.363168
138 1 0.356439 0.268789 0.616504
177 1 0.392079 0.269054 0.386547
178 1 0.386268 0.276278 0.63052
70 1 0.489164 0.247722 0.482037
89 1 0.47616 0.244635 0.470849
90 1 0.503734 0.256974 0.723117
61 2 0.504253 0.273802 0.389657
62 2 0.538423 0.2779 0.641125
94 1 0.651222 0.218478 0.664258
141 1 0.609122 0.271384 0.384845
181 1 0.620043 0.272897 0.375445
182 1 0.628526 0.258941 0.610525
93 1 0.738092 0.271621 0.510385
73 1 0.270832 0.361168 0.365979
74 1 0.264328 0.352588 0.624178
121 1 0.27341 0.375711 0.380076
122 1 0.275626 0.381017 0.638785
26 2 0.276041 0.405338 0.545758
65 1 0.361369 0.357081 0.277296
66 1 0.31037 0.313313 0.527507
1 2 0.366045 0.361406 0.371858
2 2 0.360411 0.36343 0.603099
25 2 0.30711 0.426062 0.307717
42 2 0.412403 0.285926 0.538858
57 2 0.305653 0.303855 0.433303
58 2 0.319589 0.311942 0.686947
113 1 0.354124 0.37553 0.477892
114 1 0.361372 0.390868 0.714728
129 1 0.359927 0.357319 0.279183
130 1 0.338993 0.338286 0.513574
145 1 0.378396 0.352238 0.476705
146 1 0.394118 0.357955 0.720257
185 1 0.378304 0.375931 0.28153
186 1 0.416626 0.383268 0.52039
69 1 0.518664 0.32989 0.304542
142 1 0.55514 0.31123 0.549118
10 2 0.433473 0.422261 0.664597
41 2 0.426347 0.298742 0.306225
29 2 0.559813 0.42048 0.265375
30 2 0.53299 0.412353 0.545616
33 2 0.488215 0.338253 0.475844
34 2 0.499523 0.347433 0.713639
77 1 0.500205 0.362515 0.344223
78 1 0.49673 0.330633 0.575321
81 1 0.469235 0.363483 0.380856
82 1 0.452532 0.319266 0.629054
125 1 0.488838 0.366314 0.379791
126 1 0.532425 0.425965 0.648058
161 1 0.502051 0.367153 0.326494
162 1 0.434524 0.426719 0.566381
117 1 0.544385 0.429364 0.44193
134 1 0.559792 0.320195 0.532803
5 2 0.584258 0.357196 0.36859
6 2 0.61223 0.359542 0.599937
13 2 0.664652 0.417807 0.426008
14 2 0.700045 0.401911 0.661198
45 2 0.682952 0.318146 0.339877
46 2 0.647048 0.290432 0.522305
86 1 0.706087 0.328605 0.594012
118 1 0.588568 0.360186 0.763008
133 1 0.621544 0.351307 0.278984
149 1 0.667306 0.32148 0.433611
150 1 0.592328 0.351642 0.699722
166 1 0.684888 0.409236 0.566041
189 1 0.642347 0.39006 0.297542
190 1 0.661129 0.410144 0.535969
38 2 0.669138 0.300116 0.682932
85 1 0.735703 0.361195 0.404119
165 1 0.73141 0.394025 0.365983
37 2 0.730402 0.361219 0.500576
68 1 0.260835 0.489736 0.504868
153 1 0.253938 0.472995 0.482844
154 1 0.265891 0.492408 0.730557
60 2 0.282778 0.538377 0.655447
67 1 0.337219 0.511661 0.330062
17 2 0.34975 0.46736 0.493554
18 2 0.355803 0.485608 0.712048
43 2 0.426132 0.540462 0.302502
44 2 0.391328 0.547624 0.552403
59 2 0.290086 0.525137 0.415428
97 1 0.39227 0.460364 0.346532
98 1 0.396056 0.458637 0.583583
105 1 0.350423 0.459778 0.387942
106 1 0.3139 0.452191 0.626416
139 1 0.345918 0.50439 0.340804
140 1 0.31469 0.489584 0.580268
179 1 0.408792 0.519704 0.410958
180 1 0.427257 0.537375 0.66904
76 1 0.298608 0.562259 0.568902
132 1 0.300786 0.550258 0.510185
147 1 0.379839 0.574446 0.463189
84 1 0.429426 0.536878 0.662494
9 2 0.430322 0.429637 0.435995
49 2 0.495803 0.460754 0.347177
50 2 0.48689 0.500152 0.595244
63 2 0.533529 0.533684 0.427134
64 2 0.526907 0.531771 0.692366
71 1 0.517086 0.50712 0.265185
72 1 0.558089 0.552527 0.548107
91 1 0.43224 0.525538 0.459489
92 1 0.435422 0.526243 0.671404
157 1 0.530411 0.436396 0.442272
158 1 0.510693 0.441436 0.728007
169 1 0.471608 0.464234 0.253616
170 1 0.468625 0.49936 0.498421
110 1 0.538252 0.432966 0.64675
143 1 0.549275 0.545578 0.333497
144 1 0.552547 0.561934 0.551424
79 1 0.543342 0.545446 0.324787
135 1 0.570446 0.560251 0.239349
136 1 0.563445 0.562051 0.544463
21 2 0.606963 0.479354 0.496885
22 2 0.605206 0.445024 0.707416
47 2 0.634005 0.536156 0.300809
48 2 0.658042 0.556962 0.535641
95 1 0.670199 0.531896 0.432854
96 1 0.684783 0.496581 0.690052
101 1 0.627881 0.440291 0.32891
102 1 0.629711 0.451201 0.587032
109 1 0.572711 0.442239 0.416578
174 1 0.704204 0.456819 0.509891
183 1 0.659668 0.532561 0.424619
184 1 0.651435 0.519159 0.665906
151 1 0.659487 0.539788 0.430418
173 1 0.712534 0.500511 0.272592
53 2 0.711087 0.488485 0.362248
54 2 0.716591 0.487837 0.599967
75 1 0.271995 0.612582 0.359323
123 1 0.274945 0.630918 0.376066
124 1 0.267053 0.627382 0.625415
156 1 0.22962 0.696512 0.658486
3 2 0.361383 0.595254 0.373885
4 2 0.365826 0.61402 0.630937
12 2 0.404588 0.712196 0.675779
27 2 0.326429 0.686442 0.330669
28 2 0.30575 0.646541 0.536772
100 1 0.392866 0.693566 0.582048
108 1 0.335847 0.707883 0.611395
115 1 0.329906 0.6715 0.433622
116 1 0.335679 0.595367 0.71898
131 1 0.358482 0.612193 0.280793
148 1 0.34327 0.586557 0.719065
187 1 0.400754 0.637269 0.297522
188 1 0.403565 0.658089 0.54922
164 1 0.423888 0.653619 0.561633
20 2 0.301494 0.675088 0.698656
11 2 0.429032 0.673737 0.422186
31 2 0.54098 0.631423 0.290374
32 2 0.557433 0.657438 0.53663
35 2 0.474451 0.599287 0.497068
36 2 0.443693 0.612017 0.717012
80 1 0.543876 0.57046 0.551942
83 1 0.454934 0.582691 0.398589
127 1 0.536395 0.658458 0.430574
128 1 0.519512 0.642641 0.664313
159 1 0.536413 0.664018 0.436172
160 1 0.498811 0.688352 0.692925
163 1 0.446494 0.635062 0.326999
171 1 0.494362 0.703828 0.265767
172 1 0.470778 0.700601 0.506174
119 1 0.541044 0.658004 0.435296
120 1 0.531531 0.608346 0.749212
51 2 0.50469 0.708174 0.356053
52 2 0.484099 0.707569 0.60113
7 2 0.610283 0.612538 0.38271
8 2 0.598656 0.594208 0.626562
15 2 0.702335 0.683396 0.373032
16 2 0.678978 0.677528 0.632277
87 1 0.706274 0.587039 0.367397
88 1 0.701813 0.58273 0.619113
103 1 0.612048 0.705348 0.346978
104 1 0.655489 0.671787 0.536514
111 1 0.6123 0.70992 0.362187
112 1 0.58192 0.695489 0.621187
152 1 0.591915 0.58006 0.741382
167 1 0.678757 0.621246 0.304021
168 1 0.664866 0.674081 0.5349
175 1 0.705515 0.709246 0.200113
191 1 0.632471 0.627747 0.277992
192 1 0.681264 0.654936 0.536859
39 2 0.706022 0.616741 0.459888
40 2 0.680335 0.592892 0.710232
23 2 0.621366 0.702211 0.455282
24 2 0.592685 0.670553 0.712396
55 2 0.67022 0.710014 0.276759
155 1 0.281627 0.716419 0.484399
99 1 0.410755 0.73177 0.351823
107 1 0.358924 0.73321 0.406722
19 2 0.371595 0.7253 0.50132
176 1 0.722878 0.717159 0.458552
56 2 0.725353 0.734432 0.552565
ITEM: TIMESTEP
200
ITEM: NUMBER OF ATOMS
192
ITEM: BOX BOUNDS pp pp pp
-7.2437509999999996e+00 1.9956250000000001e+01
-7.2437509999999996e+00 1.9956250000000001e+01
-7.2437509999999996e+00 1.9956250000000001e+01
ITEM: ATOMS id type xs ys zs
137 1 0.355865 0.262931 0.363844
138 1 0.357486 0.271071 0.613003
177 1 0.398979 0.270362 0.392689
178 1 0.389751 0.278621 0.630574
70 1 0.47603 0.244826 0.4721
89 1 0.474691 0.242558 0.469053
90 1 0.500592 0.254185 0.715829
61 2 0.496098 0.271408 0.381907
62 2 0.538018 0.272917 0.654137
94 1 0.632666 0.219867 0.668862
141 1 0.607344 0.275792 0.390108
181 1 0.619894 0.274769 0.381506
182 1 0.628018 0.259355 0.599011
93 1 0.741902 0.280182 0.526856
73 1 0.271935 0.359465 0.363138
74 1 0.265307 0.348046 0.623106
121 1 0.273891 0.374686 0.377038
122 1 0.278861 0.385088 0.641062
26 2 0.273562 0.401892 0.54529
65 1 0.363218 0.357526 0.275801
66 1 0.320499 0.315403 0.527457
1 2 0.369012 0.360813 0.370899
2 2 0.363873 0.366637 0.603059
25 2 0.310051 0.425482 0.308906
42 2 0.414535 0.284947 0.53813
57 2 0.30586 0.307143 0.434114
58 2 0.323383 0.315503 0.687555
113 1 0.348007 0.37741 0.480772
114 1 0.371108 0.390252 0.716152
129 1 0.356242 0.353497 0.277609
130 1 0.350141 0.351161 0.503918
145 1 0.382915 0.349176 0.47279
146 1 0.396547 0.36508 0.717207
185 1 0.366954 0.361855 0.277052
186 1 0.430159 0.385331 0.52886
69 1 0.516523 0.337201 0.303048
142 1 0.57729 0.34666 0.44912
10 2 0.440884 0.42524 0.663164
41 2 0.425607 0.298775 0.301995
29 2 0.566771 0.42431 0.265695
30 2 0.52201 0.410865 0.546565
33 2 0.488533 0.334986 0.468696
34 2 0.506371 0.346164 0.713839
77 1 0.483774 0.363495 0.358379
78 1 0.488842 0.328774 0.574303
81 1 0.470751 0.362565 0.371871
82 1 0.454258 0.324707 0.622652
125 1 0.479647 0.376527 0.376137
126 1 0.529736 0.433166 0.64332
161 1 0.504577 0.362696 0.307862
162 1 0.421479 0.444788 0.567615
117 1 0.543532 0.429281 0.445501
134 1 0.544251 0.298121 0.583525
5 2 0.577014 0.356201 0.371846
6 2 0.61011 0.360057 0.606472
13 2 0.659208 0.41844 0.428807
14 2 0.70105 0.401923 0.65458
45 2 0.684478 0.322609 0.343431
46 2 0.645446 0.293624 0.514629
86 1 0.707312 0.318087 0.590633
118 1 0.558913 0.377442 0.773424
133 1 0.61976 0.347874 0.28235
149 1 0.67308 0.324705 0.431435
150 1 0.601123 0.35228 0.719825
166 1 0.680318 0.414974 0.558159
189 1 0.646365 0.402887 0.313989
190 1 0.662267 0.410733 0.535661
38 2 0.660361 0.297994 0.68064
85 1 0.738245 0.372499 0.403529
165 1 0.735731 0.394467 0.378425
37 2 0.731534 0.36588 0.495899
68 1 0.258447 0.483808 0.501324
153 1 0.253251 0.471414 0.485081
154 1 0.268326 0.487477 0.728737
60 2 0.282748 0.537602 0.656639
67 1 0.341087 0.512052 0.334906
17 2 0.347876 0.464134 0.493735
18 2 0.358139 0.480992 0.709613
43 2 0.431334 0.53729 0.308991
44 2 0.3866 0.544315 0.555014
59 2 0.288613 0.521948 0.417305
97 1 0.396394 0.454801 0.346791
98 1 0.406812 0.456423 0.575202
105 1 0.356073 0.463971 0.383801
106 1 0.305107 0.448544 0.627292
139 1 0.354318 0.496587 0.352998
140 1 0.317507 0.479659 0.586992
179 1 0.427727 0.526992 0.41709
180 1 0.436202 0.543836 0.66305
76 1 0.293106 0.558427 0.567795
132 1 0.301003 0.550706 0.510491
147 1 0.358379 0.590163 0.474559
84 1 0.414679 0.53977 0.663646
9 2 0.432975 0.431279 0.43871
49 2 0.502349 0.4547 0.344259
50 2 0.491911 0.511714 0.591001
63 2 0.534097 0.533439 0.432319
64 2 0.518199 0.525818 0.702524
71 1 0.526713 0.512995 0.267164
72 1 0.570649 0.573196 0.547026
91 1 0.440197 0.52689 0.455446
92 1 0.438576 0.525491 0.667017
157 1 0.523265 0.440569 0.444864
158 1 0.509441 0.441148 0.742156
169 1 0.472468 0.452763 0.256431
170 1 0.473924 0.494284 0.502061
110 1 0.533331 0.43771 0.641889
143 1 0.550043 0.54441 0.336296
144 1 0.572323 0.560468 0.54605
79 1 0.532587 0.529111 0.283174
135 1 0.573038 0.561722 0.228773
136 1 0.557995 0.560608 0.550981
21 2 0.60065 0.477277 0.503629
22 2 0.600316 0.444653 0.704532
47 2 0.631973 0.535095 0.294563
48 2 0.658747 0.563573 0.533225
95 1 0.666302 0.524601 0.440725
96 1 0.678364 0.499168 0.686407
101 1 0.630885 0.435024 0.335572
102 1 0.615478 0.458167 0.604511
109 1 0.557778 0.440881 0.427076
174 1 0.698225 0.456235 0.513068
183 1 0.67064 0.547485 0.419409
184 1 0.655914 0.516241 0.670215
151 1 0.646355 0.54024 0.43585
173 1 0.708442 0.494701 0.270881
53 2 0.70864 0.487221 0.362741
54 2 0.713913 0.490999 0.598826
75 1 0.275852 0.61237 0.358622
123 1 0.279427 0.631973 0.376292
124 1 0.274266 0.627786 0.623482
156 1 0.233299 0.684873 0.656507
3 2 0.362498 0.590327 0.378273
4 2 0.369342 0.612292 0.636762
12 2 0.4063 0.715489 0.676168
27 2 0.335488 0.687524 0.334639
28 2 0.317125 0.642783 0.535129
100 1 0.391079 0.692037 0.583792
108 1 0.336812 0.703438 0.612412
115 1 0.333767 0.683388 0.427336
116 1 0.330118 0.592002 0.723277
131 1 0.356732 0.605062 0.285625
148 1 0.341254 0.578106 0.723932
187 1 0.419431 0.636455 0.309803
188 1 0.414588 0.652616 0.557481
164 1 0.422807 0.650016 0.561804
20 2 0.304371 0.675889 0.701286
11 2 0.42958 0.671962 0.420105
31 2 0.539651 0.621062 0.289671
32 2 0.560583 0.657897 0.53565
35 2 0.469608 0.601238 0.499044
36 2 0.438375 0.612268 0.723831
80 1 0.540569 0.563344 0.537194
83 1 0.462457 0.586217 0.394547
127 1 0.540058 0.670147 0.424219
128 1 0.515172 0.641172 0.668435
159 1 0.537074 0.658371 0.441118
160 1 0.499572 0.682568 0.691963
163 1 0.446648 0.63209 0.333765
171 1 0.496208 0.694213 0.260858
172 1 0.4726 0.703253 0.503912
119 1 0.545296 0.645374 0.440024
120 1 0.525685 0.608319 0.75292
51 2 0.506265 0.706505 0.347809
52 2 0.484865 0.711082 0.601848
7 2 0.612579 0.611857 0.383979
8 2 0.595012 0.587155 0.635608
15 2 0.703103 0.681411 0.367242
16 2 0.674052 0.676952 0.625911
87 1 0.70623 0.585245 0.35801
88 1 0.69701 0.582991 0.617607
103 1 0.606185 0.710366 0.347727
104 1 0.653107 0.662164 0.530452
111 1 0.605458 0.713699 0.36116
112 1 0.577147 0.691734 0.624882
152 1 0.593043 0.571298 0.736892
167 1 0.667798 0.624786 0.294616
168 1 0.672177 0.671768 0.529428
175 1 0.704442 0.714743 0.200728
191 1 0.630852 0.630606 0.2826
192 1 0.686397 0.659065 0.53059
39 2 0.705663 0.618572 0.454228
40 2 0.680055 0.596311 0.70842
23 2 0.6225 0.705186 0.455921
24 2 0.591268 0.66381 0.715175
55 2 0.663004 0.715072 0.275431
155 1 0.28746 0.710801 0.482163
99 1 0.414584 0.735203 0.354874
107 1 0.367889 0.741713 0.404028
19 2 0.375024 0.727728 0.501755
176 1 0.721476 0.715637 0.456379
56 2 0.729907 0.738466 0.551278
ITEM: TIMESTEP
300
ITEM: NUMBER OF ATOMS
192
ITEM: BOX BOUNDS pp pp pp
-7.2437509999999996e+00 1.9956250000000001e+01
-7.2437509999999996e+00 1.9956250000000001e+01
-7.2437509999999996e+00 1.9956250000000001e+01
ITEM: ATOMS id type xs ys zs
137 1 0.351673 0.267251 0.359735
138 1 0.360945 0.271768 0.611839
177 1 0.399673 0.273019 0.389198
178 1 0.387914 0.282893 0.627081
70 1 0.475747 0.242137 0.470058
89 1 0.47166 0.246028 0.473667
90 1 0.460616 0.242777 0.776772
61 2 0.499917 0.262842 0.384575
62 2 0.55908 0.253683 0.711046
94 1 0.616239 0.1972 0.672319
141 1 0.612966 0.289467 0.392166
181 1 0.609887 0.28035 0.379617
182 1 0.614624 0.263206 0.602683
93 1 0.735037 0.288439 0.526685
73 1 0.273072 0.360336 0.362432
74 1 0.261575 0.343257 0.622639
121 1 0.274179 0.375629 0.37627
122 1 0.281457 0.389344 0.643516
26 2 0.274501 0.39727 0.548025
65 1 0.361469 0.36031 0.273148
66 1 0.318342 0.316474 0.526696
1 2 0.368843 0.358897 0.367525
2 2 0.36594 0.371038 0.602325
25 2 0.311913 0.42893 0.310918
42 2 0.41413 0.289504 0.534674
57 2 0.303413 0.309002 0.433806
58 2 0.326193 0.317437 0.68511
113 1 0.34563 0.371016 0.488929
114 1 0.382414 0.384904 0.71511
129 1 0.346423 0.350271 0.278566
130 1 0.345809 0.353113 0.504151
145 1 0.377063 0.354648 0.470021
146 1 0.390661 0.377402 0.714514
185 1 0.367011 0.365578 0.274428
186 1 0.423502 0.38197 0.52379
69 1 0.505183 0.34326 0.259992
142 1 0.617725 0.325567 0.45488
10 2 0.441306 0.428989 0.659018
41 2 0.431207 0.304657 0.300603
29 2 0.570392 0.424613 0.25955
30 2 0.515118 0.412294 0.546898
33 2 0.485909 0.336445 0.465042
34 2 0.498291 0.35188 0.710829
77 1 0.470206 0.373237 0.364647
78 1 0.49972 0.326879 0.573459
81 1 0.472563 0.357955 0.374871
82 1 0.456582 0.331173 0.617438
125 1 0.478044 0.36692 0.376901
126 1 0.530781 0.431801 0.642678
161 1 0.493365 0.367834 0.28291
162 1 0.425894 0.44813 0.564939
117 1 0.544794 0.42942 0.44664
134 1 0.579787 0.343317 0.488395
5 2 0.570333 0.353979 0.34895
6 2 0.596538 0.35993 0.606342
13 2 0.661735 0.435995 0.433833
14 2 0.694631 0.402185 0.651684
45 2 0.67757 0.330088 0.348097
46 2 0.650206 0.302392 0.523026
86 1 0.697867 0.326182 0.596354
118 1 0.564078 0.398141 0.762329
133 1 0.625478 0.343668 0.267695
149 1 0.679306 0.330606 0.438693
150 1 0.594632 0.344461 0.725271
166 1 0.670957 0.414677 0.558027
189 1 0.643898 0.422411 0.321819
190 1 0.662104 0.40704 0.540289
38 2 0.653839 0.293937 0.677379
85 1 0.736407 0.392943 0.402698
165 1 0.728804 0.388602 0.392703
37 2 0.733146 0.370589 0.493853
68 1 0.254144 0.476519 0.500011
153 1 0.25113 0.466466 0.487532
154 1 0.269143 0.483369 0.728894
60 2 0.284691 0.535461 0.656151
67 1 0.335426 0.518661 0.328873
17 2 0.346145 0.46321 0.496043
18 2 0.356678 0.475854 0.707176
43 2 0.433932 0.537697 0.313393
44 2 0.387647 0.543 0.553754
59 2 0.28676 0.519518 0.416896
97 1 0.401124 0.452907 0.346614
98 1 0.418403 0.454988 0.568509
105 1 0.360883 0.468361 0.384133
106 1 0.300189 0.443415 0.632066
139 1 0.363005 0.486837 0.369533
140 1 0.325626 0.471442 0.59178
179 1 0.437109 0.528063 0.413341
180 1 0.42453 0.540913 0.668538
76 1 0.295797 0.560079 0.56912
132 1 0.303396 0.554669 0.507468
147 1 0.352345 0.576132 0.474651
84 1 0.422163 0.540255 0.666689
9 2 0.429734 0.429884 0.434825
49 2 0.500028 0.453958 0.348664
50 2 0.492736 0.512661 0.599165
63 2 0.536205 0.531312 0.433434
64 2 0.514767 0.525242 0.705406
71 1 0.543134 0.511979 0.279167
72 1 0.563421 0.556083 0.540063
91 1 0.439719 0.529426 0.450403
92 1 0.430478 0.527201 0.66605
157 1 0.533185 0.435111 0.445063
158 1 0.511033 0.438041 0.740876
169 1 0.470249 0.445594 0.258783
170 1 0.471568 0.492969 0.50482
110 1 0.540244 0.442503 0.638038
143 1 0.541756 0.54222 0.332175
144 1 0.561434 0.564988 0.55139
79 1 0.525719 0.520676 0.278831
135 1 0.576654 0.561614 0.224044
136 1 0.568346 0.564985 0.546944
21 2 0.597726 0.475668 0.515663
22 2 0.601403 0.444539 0.704281
47 2 0.628822 0.531228 0.292653
48 2 0.663183 0.569141 0.531652
95 1 0.665748 0.533442 0.440057
96 1 0.673934 0.504659 0.682374
101 1 0.62773 0.439995 0.335566
102 1 0.608576 0.458436 0.608017
109 1 0.565604 0.4389 0.428166
174 1 0.693701 0.457993 0.515328
183 1 0.664612 0.543124 0.417367
184 1 0.659975 0.515435 0.674063
151 1 0.655564 0.540976 0.437682
173 1 0.705653 0.489451 0.269946
53 2 0.706966 0.483796 0.359642
54 2 0.708792 0.491862 0.59552
75 1 0.283773 0.613582 0.360555
123 1 0.285853 0.633535 0.374872
124 1 0.273434 0.626855 0.624792
156 1 0.236265 0.67857 0.654033
3 2 0.368635 0.58745 0.384964
4 2 0.368422 0.613118 0.635625
12 2 0.407634 0.712918 0.678135
27 2 0.346598 0.68276 0.336827
28 2 0.315898 0.64595 0.538666
100 1 0.397806 0.68732 0.581153
108 1 0.339873 0.706594 0.613528
115 1 0.339105 0.676851 0.433978
116 1 0.333728 0.59293 0.722818
131 1 0.354337 0.600415 0.293557
148 1 0.341743 0.58462 0.723395
187 1 0.442763 0.635421 0.324904
188 1 0.413689 0.657543 0.560765
164 1 0.419731 0.656028 0.56409
20 2 0.304777 0.672598 0.703261
11 2 0.437039 0.676182 0.41911
31 2 0.537603 0.614728 0.286155
32 2 0.561787 0.656423 0.534053
35 2 0.468913 0.601641 0.496266
36 2 0.437359 0.608139 0.72522
80 1 0.546995 0.572008 0.5398
83 1 0.466947 0.58896 0.389986
127 1 0.538396 0.669808 0.429535
128 1 0.51278 0.637625 0.667196
159 1 0.537286 0.663437 0.432996
160 1 0.496918 0.680355 0.691577
163 1 0.446389 0.633095 0.328957
171 1 0.496813 0.683979 0.254323
172 1 0.475979 0.702085 0.504934
119 1 0.541347 0.657314 0.43176
120 1 0.526661 0.602525 0.75602
51 2 0.50959 0.701758 0.348647
52 2 0.485886 0.70843 0.601584
7 2 0.608892 0.611109 0.378
8 2 0.5927 0.576106 0.636336
15 2 0.697262 0.684891 0.364472
16 2 0.668982 0.674676 0.624644
87 1 0.702068 0.58507 0.357221
88 1 0.706932 0.584367 0.618084
103 1 0.604831 0.707369 0.347243
104 1 0.665061 0.66593 0.526376
111 1 0.604444 0.709601 0.356465
112 1 0.574965 0.692127 0.625164
152 1 0.599235 0.564633 0.73909
167 1 0.66132 0.626522 0.29484
168 1 0.674193 0.67312 0.525546
175 1 0.702824 0.72099 0.202684
191 1 0.630735 0.63174 0.283202
192 1 0.686791 0.661478 0.528496
39 2 0.711473 0.618116 0.447815
40 2 0.68274 0.59806 0.707027
23 2 0.622841 0.704306 0.450805
24 2 0.587687 0.66086 0.715833
55 2 0.65594 0.720236 0.272428
155 1 0.29181 0.710951 0.483231
99 1 0.420884 0.741539 0.3535
107 1 0.373133 0.740119 0.407009
19 2 0.380392 0.725801 0.503081
176 1 0.720747 0.718065 0.455111
56 2 0.728368 0.735437 0.551087
ITEM: TIMESTEP
400
ITEM: NUMBER OF ATOMS
192
ITEM: BOX BOUNDS pp pp pp
-7.2437509999999996e+00 1.9956250000000001e+01
-7.2437509999999996e+00 1.9956250000000001e+01
-7.2437509999999996e+00 1.9956250000000001e+01
ITEM: ATOMS id type xs ys zs
137 1 0.358805 0.26844 0.359257
138 1 0.357192 0.274479 0.605279
177 1 0.403362 0.271411 0.386911
178 1 0.38798 0.282756 0.622922
70 1 0.472757 0.247806 0.478933
89 1 0.474641 0.245173 0.475172
90 1 0.488603 0.262339 0.777847
61 2 0.501501 0.260838 0.386896
62 2 0.561358 0.256103 0.737339
94 1 0.615853 0.207017 0.691195
141 1 0.615405 0.268987 0.365824
181 1 0.600295 0.268949 0.374442
182 1 0.595848 0.260403 0.602812
93 1 0.749177 0.295856 0.532697
73 1 0.271067 0.362624 0.360038
74 1 0.259079 0.337268 0.624614
121 1 0.275022 0.380229 0.377149
122 1 0.284845 0.397961 0.651113
26 2 0.268603 0.39757 0.552807
65 1 0.362211 0.362396 0.275464
66 1 0.316707 0.319703 0.526536
1 2 0.36935 0.360468 0.367613
2 2 0.363496 0.37274 0.600653
25 2 0.31186 0.432409 0.311201
42 2 0.41351 0.294551 0.533989
57 2 0.305632 0.308558 0.431963
58 2 0.325305 0.316207 0.682152
113 1 0.338099 0.366768 0.496464
114 1 0.390266 0.384018 0.70591
129 1 0.359348 0.353247 0.283204
130 1 0.337564 0.350044 0.508401
145 1 0.372584 0.360101 0.473554
146 1 0.384708 0.379009 0.725914
185 1 0.356378 0.366058 0.267927
186 1 0.416041 0.386934 0.516869
69 1 0.508741 0.356072 0.239516
142 1 0.584214 0.327021 0.445556
10 2 0.443413 0.433113 0.65543
41 2 0.435581 0.309877 0.295148
29 2 0.56625 0.420999 0.254369
30 2 0.50954 0.412882 0.544758
33 2 0.499282 0.336366 0.466115
34 2 0.494913 0.344118 0.710758
77 1 0.471029 0.368788 0.363638
78 1 0.513472 0.313777 0.553822
81 1 0.469518 0.354976 0.375199
82 1 0.467866 0.35239 0.613725
125 1 0.473279 0.368277 0.37794
126 1 0.531522 0.436029 0.643264
161 1 0.504048 0.365855 0.273717
162 1 0.423583 0.448344 0.558702
117 1 0.542331 0.429856 0.446813
134 1 0.597847 0.378216 0.494791
5 2 0.563536 0.355806 0.359419
6 2 0.587734 0.358197 0.607776
13 2 0.650968 0.420563 0.435164
14 2 0.682465 0.4019 0.65376
45 2 0.668781 0.337298 0.340261
46 2 0.650338 0.305001 0.530335
86 1 0.713839 0.324812 0.607598
118 1 0.555741 0.389756 0.761543
133 1 0.624415 0.352275 0.26637
149 1 0.674154 0.332413 0.438696
150 1 0.593796 0.351173 0.724133
166 1 0.669526 0.412945 0.559276
189 1 0.636874 0.422381 0.320335
190 1 0.666747 0.411793 0.553735
38 2 0.646151 0.287495 0.677177
85 1 0.747315 0.431251 0.417753
165 1 0.733477 0.392306 0.397806
37 2 0.733654 0.379643 0.49718
68 1 0.249526 0.465544 0.497529
153 1 0.252505 0.464411 0.480921
154 1 0.265839 0.482069 0.726149
60 2 0.284863 0.533253 0.655756
67 1 0.336532 0.520769 0.332683
17 2 0.343098 0.459681 0.49847
18 2 0.354702 0.471039 0.706697
43 2 0.434127 0.534818 0.313116
44 2 0.394514 0.541225 0.554228
59 2 0.283963 0.514523 0.419086
97 1 0.403072 0.453398 0.3425
98 1 0.419104 0.452604 0.561819
105 1 0.360297 0.471734 0.38371
106 1 0.297199 0.434663 0.636267
139 1 0.359865 0.49427 0.365665
140 1 0.333792 0.467399 0.602198
179 1 0.442429 0.521585 0.408592
180 1 0.422189 0.540892 0.663207
76 1 0.304391 0.562692 0.569504
132 1 0.315153 0.55617 0.499349
147 1 0.338554 0.564421 0.481091
84 1 0.419557 0.540302 0.675404
9 2 0.431538 0.431921 0.436633
49 2 0.50701 0.454642 0.346007
50 2 0.495776 0.51706 0.599535
63 2 0.536505 0.531481 0.435787
64 2 0.512884 0.523262 0.708934
71 1 0.537806 0.517154 0.282835
72 1 0.56576 0.567653 0.548598
91 1 0.433616 0.528774 0.451596
92 1 0.429503 0.525463 0.666413
157 1 0.525558 0.436462 0.443887
158 1 0.514919 0.433981 0.735414
169 1 0.471768 0.441551 0.263764
170 1 0.481497 0.496582 0.506294
110 1 0.544977 0.441136 0.638395
143 1 0.542299 0.541715 0.339204
144 1 0.563549 0.559008 0.545512
79 1 0.528687 0.520813 0.28251
135 1 0.580603 0.556085 0.219988
136 1 0.564929 0.562942 0.536949
21 2 0.597766 0.473579 0.516784
22 2 0.603418 0.448474 0.707524
47 2 0.628409 0.533625 0.29443
48 2 0.657458 0.568924 0.53053
95 1 0.667434 0.537417 0.429869
96 1 0.670995 0.511139 0.678798
101 1 0.612296 0.449211 0.333831
102 1 0.61384 0.453037 0.610217
109 1 0.562297 0.440981 0.421816
174 1 0.698077 0.469301 0.509897
183 1 0.664299 0.545316 0.415926
184 1 0.666306 0.514311 0.675904
151 1 0.657716 0.543862 0.42746
173 1 0.701773 0.485749 0.267194
53 2 0.708079 0.488041 0.362519
54 2 0.709707 0.491555 0.59941
75 1 0.289354 0.613165 0.360399
123 1 0.291987 0.630912 0.375764