LAMMPS data file. CGCMM style. atom_style full generated by VMD/TopoTools v1.5 on Thu Dec 18 14:38:28 MSK 2025
 768 atoms
 0 bonds
 0 angles
 0 dihedrals
 0 impropers
 2 atom types
 0 bond types
 0 angle types
 0 dihedral types
 0 improper types
 -0.495337 24.004663  xlo xhi
 -0.495337 24.004663  ylo yhi
 -0.631250 19.268750  zlo zhi

# Pair Coeffs
#
# 1  Co
# 2  Ta

 Masses

 1 58.933201 # Co
 2 180.947906 # Ta

 Atoms

1 1 2 0.000000 2.089326 0.970674 2.485000 # Ta 
2 1 2 0.000000 2.089326 0.970674 7.455000 # Ta 
3 1 2 0.000000 2.089326 0.970674 12.425000 # Ta 
4 1 2 0.000000 2.089326 0.970674 17.395000 # Ta 
5 1 2 0.000000 2.089326 7.090674 2.485000 # Ta 
6 1 2 0.000000 2.089326 7.090674 7.455000 # Ta 
7 1 2 0.000000 2.089326 7.090674 12.425000 # Ta 
8 1 2 0.000000 2.089326 7.090674 17.395000 # Ta 
9 1 2 0.000000 2.089326 13.210674 2.485000 # Ta 
10 1 2 0.000000 2.089326 13.210674 7.455000 # Ta 
11 1 2 0.000000 2.089326 13.210674 12.425000 # Ta 
12 1 2 0.000000 2.089326 13.210674 17.395000 # Ta 
13 1 2 0.000000 2.089326 19.330673 2.485000 # Ta 
14 1 2 0.000000 2.089326 19.330673 7.455000 # Ta 
15 1 2 0.000000 2.089326 19.330673 12.425000 # Ta 
16 1 2 0.000000 2.089326 19.330673 17.395000 # Ta 
17 1 2 0.000000 8.209326 0.970674 2.485000 # Ta 
18 1 2 0.000000 8.209326 0.970674 7.455000 # Ta 
19 1 2 0.000000 8.209326 0.970674 12.425000 # Ta 
20 1 2 0.000000 8.209326 0.970674 17.395000 # Ta 
21 1 2 0.000000 8.209326 7.090674 2.485000 # Ta 
22 1 2 0.000000 8.209326 7.090674 7.455000 # Ta 
23 1 2 0.000000 8.209326 7.090674 12.425000 # Ta 
24 1 2 0.000000 8.209326 7.090674 17.395000 # Ta 
25 1 2 0.000000 8.209326 13.210674 2.485000 # Ta 
26 1 2 0.000000 8.209326 13.210674 7.455000 # Ta 
27 1 2 0.000000 8.209326 13.210674 12.425000 # Ta 
28 1 2 0.000000 8.209326 13.210674 17.395000 # Ta 
29 1 2 0.000000 8.209326 19.330673 2.485000 # Ta 
30 1 2 0.000000 8.209326 19.330673 7.455000 # Ta 
31 1 2 0.000000 8.209326 19.330673 12.425000 # Ta 
32 1 2 0.000000 8.209326 19.330673 17.395000 # Ta 
33 1 2 0.000000 14.329326 0.970674 2.485000 # Ta 
34 1 2 0.000000 14.329326 0.970674 7.455000 # Ta 
35 1 2 0.000000 14.329326 0.970674 12.425000 # Ta 
36 1 2 0.000000 14.329326 0.970674 17.395000 # Ta 
37 1 2 0.000000 14.329326 7.090674 2.485000 # Ta 
38 1 2 0.000000 14.329326 7.090674 7.455000 # Ta 
39 1 2 0.000000 14.329326 7.090674 12.425000 # Ta 
40 1 2 0.000000 14.329326 7.090674 17.395000 # Ta 
41 1 2 0.000000 14.329326 13.210674 2.485000 # Ta 
42 1 2 0.000000 14.329326 13.210674 7.455000 # Ta 
43 1 2 0.000000 14.329326 13.210674 12.425000 # Ta 
44 1 2 0.000000 14.329326 13.210674 17.395000 # Ta 
45 1 2 0.000000 14.329326 19.330673 2.485000 # Ta 
46 1 2 0.000000 14.329326 19.330673 7.455000 # Ta 
47 1 2 0.000000 14.329326 19.330673 12.425000 # Ta 
48 1 2 0.000000 14.329326 19.330673 17.395000 # Ta 
49 1 2 0.000000 20.449326 0.970674 2.485000 # Ta 
50 1 2 0.000000 20.449326 0.970674 7.455000 # Ta 
51 1 2 0.000000 20.449326 0.970674 12.425000 # Ta 
52 1 2 0.000000 20.449326 0.970674 17.395000 # Ta 
53 1 2 0.000000 20.449326 7.090674 2.485000 # Ta 
54 1 2 0.000000 20.449326 7.090674 7.455000 # Ta 
55 1 2 0.000000 20.449326 7.090674 12.425000 # Ta 
56 1 2 0.000000 20.449326 7.090674 17.395000 # Ta 
57 1 2 0.000000 20.449326 13.210674 2.485000 # Ta 
58 1 2 0.000000 20.449326 13.210674 7.455000 # Ta 
59 1 2 0.000000 20.449326 13.210674 12.425000 # Ta 
60 1 2 0.000000 20.449326 13.210674 17.395000 # Ta 
61 1 2 0.000000 20.449326 19.330673 2.485000 # Ta 
62 1 2 0.000000 20.449326 19.330673 7.455000 # Ta 
63 1 2 0.000000 20.449326 19.330673 12.425000 # Ta 
64 1 2 0.000000 20.449326 19.330673 17.395000 # Ta 
65 1 2 0.000000 4.030674 0.970674 0.000000 # Ta 
66 1 2 0.000000 4.030674 0.970674 4.970000 # Ta 
67 1 2 0.000000 4.030674 0.970674 9.940000 # Ta 
68 1 2 0.000000 4.030674 0.970674 14.910000 # Ta 
69 1 2 0.000000 4.030674 7.090674 0.000000 # Ta 
70 1 2 0.000000 4.030674 7.090674 4.970000 # Ta 
71 1 2 0.000000 4.030674 7.090674 9.940000 # Ta 
72 1 2 0.000000 4.030674 7.090674 14.910000 # Ta 
73 1 2 0.000000 4.030674 13.210674 0.000000 # Ta 
74 1 2 0.000000 4.030674 13.210674 4.970000 # Ta 
75 1 2 0.000000 4.030674 13.210674 9.940000 # Ta 
76 1 2 0.000000 4.030674 13.210674 14.910000 # Ta 
77 1 2 0.000000 4.030674 19.330673 0.000000 # Ta 
78 1 2 0.000000 4.030674 19.330673 4.970000 # Ta 
79 1 2 0.000000 4.030674 19.330673 9.940000 # Ta 
80 1 2 0.000000 4.030674 19.330673 14.910000 # Ta 
81 1 2 0.000000 10.150674 0.970674 0.000000 # Ta 
82 1 2 0.000000 10.150674 0.970674 4.970000 # Ta 
83 1 2 0.000000 10.150674 0.970674 9.940000 # Ta 
84 1 2 0.000000 10.150674 0.970674 14.910000 # Ta 
85 1 2 0.000000 10.150674 7.090674 0.000000 # Ta 
86 1 2 0.000000 10.150674 7.090674 4.970000 # Ta 
87 1 2 0.000000 10.150674 7.090674 9.940000 # Ta 
88 1 2 0.000000 10.150674 7.090674 14.910000 # Ta 
89 1 2 0.000000 10.150674 13.210674 0.000000 # Ta 
90 1 2 0.000000 10.150674 13.210674 4.970000 # Ta 
91 1 2 0.000000 10.150674 13.210674 9.940000 # Ta 
92 1 2 0.000000 10.150674 13.210674 14.910000 # Ta 
93 1 2 0.000000 10.150674 19.330673 0.000000 # Ta 
94 1 2 0.000000 10.150674 19.330673 4.970000 # Ta 
95 1 2 0.000000 10.150674 19.330673 9.940000 # Ta 
96 1 2 0.000000 10.150674 19.330673 14.910000 # Ta 
97 1 2 0.000000 16.270674 0.970674 0.000000 # Ta 
98 1 2 0.000000 16.270674 0.970674 4.970000 # Ta 
99 1 2 0.000000 16.270674 0.970674 9.940000 # Ta 
100 1 2 0.000000 16.270674 0.970674 14.910000 # Ta 
101 1 2 0.000000 16.270674 7.090674 0.000000 # Ta 
102 1 2 0.000000 16.270674 7.090674 4.970000 # Ta 
103 1 2 0.000000 16.270674 7.090674 9.940000 # Ta 
104 1 2 0.000000 16.270674 7.090674 14.910000 # Ta 
105 1 2 0.000000 16.270674 13.210674 0.000000 # Ta 
106 1 2 0.000000 16.270674 13.210674 4.970000 # Ta 
107 1 2 0.000000 16.270674 13.210674 9.940000 # Ta 
108 1 2 0.000000 16.270674 13.210674 14.910000 # Ta 
109 1 2 0.000000 16.270674 19.330673 0.000000 # Ta 
110 1 2 0.000000 16.270674 19.330673 4.970000 # Ta 
111 1 2 0.000000 16.270674 19.330673 9.940000 # Ta 
112 1 2 0.000000 16.270674 19.330673 14.910000 # Ta 
113 1 2 0.000000 22.390675 0.970674 0.000000 # Ta 
114 1 2 0.000000 22.390675 0.970674 4.970000 # Ta 
115 1 2 0.000000 22.390675 0.970674 9.940000 # Ta 
116 1 2 0.000000 22.390675 0.970674 14.910000 # Ta 
117 1 2 0.000000 22.390675 7.090674 0.000000 # Ta 
118 1 2 0.000000 22.390675 7.090674 4.970000 # Ta 
119 1 2 0.000000 22.390675 7.090674 9.940000 # Ta 
120 1 2 0.000000 22.390675 7.090674 14.910000 # Ta 
121 1 2 0.000000 22.390675 13.210674 0.000000 # Ta 
122 1 2 0.000000 22.390675 13.210674 4.970000 # Ta 
123 1 2 0.000000 22.390675 13.210674 9.940000 # Ta 
124 1 2 0.000000 22.390675 13.210674 14.910000 # Ta 
125 1 2 0.000000 22.390675 19.330673 0.000000 # Ta 
126 1 2 0.000000 22.390675 19.330673 4.970000 # Ta 
127 1 2 0.000000 22.390675 19.330673 9.940000 # Ta 
128 1 2 0.000000 22.390675 19.330673 14.910000 # Ta 
129 1 2 0.000000 2.089326 5.149326 0.000000 # Ta 
130 1 2 0.000000 2.089326 5.149326 4.970000 # Ta 
131 1 2 0.000000 2.089326 5.149326 9.940000 # Ta 
132 1 2 0.000000 2.089326 5.149326 14.910000 # Ta 
133 1 2 0.000000 2.089326 11.269326 0.000000 # Ta 
134 1 2 0.000000 2.089326 11.269326 4.970000 # Ta 
135 1 2 0.000000 2.089326 11.269326 9.940000 # Ta 
136 1 2 0.000000 2.089326 11.269326 14.910000 # Ta 
137 1 2 0.000000 2.089326 17.389326 0.000000 # Ta 
138 1 2 0.000000 2.089326 17.389326 4.970000 # Ta 
139 1 2 0.000000 2.089326 17.389326 9.940000 # Ta 
140 1 2 0.000000 2.089326 17.389326 14.910000 # Ta 
141 1 2 0.000000 2.089326 23.509327 0.000000 # Ta 
142 1 2 0.000000 2.089326 23.509327 4.970000 # Ta 
143 1 2 0.000000 2.089326 23.509327 9.940000 # Ta 
144 1 2 0.000000 2.089326 23.509327 14.910000 # Ta 
145 1 2 0.000000 8.209326 5.149326 0.000000 # Ta 
146 1 2 0.000000 8.209326 5.149326 4.970000 # Ta 
147 1 2 0.000000 8.209326 5.149326 9.940000 # Ta 
148 1 2 0.000000 8.209326 5.149326 14.910000 # Ta 
149 1 2 0.000000 8.209326 11.269326 0.000000 # Ta 
150 1 2 0.000000 8.209326 11.269326 4.970000 # Ta 
151 1 2 0.000000 8.209326 11.269326 9.940000 # Ta 
152 1 2 0.000000 8.209326 11.269326 14.910000 # Ta 
153 1 2 0.000000 8.209326 17.389326 0.000000 # Ta 
154 1 2 0.000000 8.209326 17.389326 4.970000 # Ta 
155 1 2 0.000000 8.209326 17.389326 9.940000 # Ta 
156 1 2 0.000000 8.209326 17.389326 14.910000 # Ta 
157 1 2 0.000000 8.209326 23.509327 0.000000 # Ta 
158 1 2 0.000000 8.209326 23.509327 4.970000 # Ta 
159 1 2 0.000000 8.209326 23.509327 9.940000 # Ta 
160 1 2 0.000000 8.209326 23.509327 14.910000 # Ta 
161 1 2 0.000000 14.329326 5.149326 0.000000 # Ta 
162 1 2 0.000000 14.329326 5.149326 4.970000 # Ta 
163 1 2 0.000000 14.329326 5.149326 9.940000 # Ta 
164 1 2 0.000000 14.329326 5.149326 14.910000 # Ta 
165 1 2 0.000000 14.329326 11.269326 0.000000 # Ta 
166 1 2 0.000000 14.329326 11.269326 4.970000 # Ta 
167 1 2 0.000000 14.329326 11.269326 9.940000 # Ta 
168 1 2 0.000000 14.329326 11.269326 14.910000 # Ta 
169 1 2 0.000000 14.329326 17.389326 0.000000 # Ta 
170 1 2 0.000000 14.329326 17.389326 4.970000 # Ta 
171 1 2 0.000000 14.329326 17.389326 9.940000 # Ta 
172 1 2 0.000000 14.329326 17.389326 14.910000 # Ta 
173 1 2 0.000000 14.329326 23.509327 0.000000 # Ta 
174 1 2 0.000000 14.329326 23.509327 4.970000 # Ta 
175 1 2 0.000000 14.329326 23.509327 9.940000 # Ta 
176 1 2 0.000000 14.329326 23.509327 14.910000 # Ta 
177 1 2 0.000000 20.449326 5.149326 0.000000 # Ta 
178 1 2 0.000000 20.449326 5.149326 4.970000 # Ta 
179 1 2 0.000000 20.449326 5.149326 9.940000 # Ta 
180 1 2 0.000000 20.449326 5.149326 14.910000 # Ta 
181 1 2 0.000000 20.449326 11.269326 0.000000 # Ta 
182 1 2 0.000000 20.449326 11.269326 4.970000 # Ta 
183 1 2 0.000000 20.449326 11.269326 9.940000 # Ta 
184 1 2 0.000000 20.449326 11.269326 14.910000 # Ta 
185 1 2 0.000000 20.449326 17.389326 0.000000 # Ta 
186 1 2 0.000000 20.449326 17.389326 4.970000 # Ta 
187 1 2 0.000000 20.449326 17.389326 9.940000 # Ta 
188 1 2 0.000000 20.449326 17.389326 14.910000 # Ta 
189 1 2 0.000000 20.449326 23.509327 0.000000 # Ta 
190 1 2 0.000000 20.449326 23.509327 4.970000 # Ta 
191 1 2 0.000000 20.449326 23.509327 9.940000 # Ta 
192 1 2 0.000000 20.449326 23.509327 14.910000 # Ta 
193 1 2 0.000000 4.030674 5.149326 2.485000 # Ta 
194 1 2 0.000000 4.030674 5.149326 7.455000 # Ta 
195 1 2 0.000000 4.030674 5.149326 12.425000 # Ta 
196 1 2 0.000000 4.030674 5.149326 17.395000 # Ta 
197 1 2 0.000000 4.030674 11.269326 2.485000 # Ta 
198 1 2 0.000000 4.030674 11.269326 7.455000 # Ta 
199 1 2 0.000000 4.030674 11.269326 12.425000 # Ta 
200 1 2 0.000000 4.030674 11.269326 17.395000 # Ta 
201 1 2 0.000000 4.030674 17.389326 2.485000 # Ta 
202 1 2 0.000000 4.030674 17.389326 7.455000 # Ta 
203 1 2 0.000000 4.030674 17.389326 12.425000 # Ta 
204 1 2 0.000000 4.030674 17.389326 17.395000 # Ta 
205 1 2 0.000000 4.030674 23.509327 2.485000 # Ta 
206 1 2 0.000000 4.030674 23.509327 7.455000 # Ta 
207 1 2 0.000000 4.030674 23.509327 12.425000 # Ta 
208 1 2 0.000000 4.030674 23.509327 17.395000 # Ta 
209 1 2 0.000000 10.150674 5.149326 2.485000 # Ta 
210 1 2 0.000000 10.150674 5.149326 7.455000 # Ta 
211 1 2 0.000000 10.150674 5.149326 12.425000 # Ta 
212 1 2 0.000000 10.150674 5.149326 17.395000 # Ta 
213 1 2 0.000000 10.150674 11.269326 2.485000 # Ta 
214 1 2 0.000000 10.150674 11.269326 7.455000 # Ta 
215 1 2 0.000000 10.150674 11.269326 12.425000 # Ta 
216 1 2 0.000000 10.150674 11.269326 17.395000 # Ta 
217 1 2 0.000000 10.150674 17.389326 2.485000 # Ta 
218 1 2 0.000000 10.150674 17.389326 7.455000 # Ta 
219 1 2 0.000000 10.150674 17.389326 12.425000 # Ta 
220 1 2 0.000000 10.150674 17.389326 17.395000 # Ta 
221 1 2 0.000000 10.150674 23.509327 2.485000 # Ta 
222 1 2 0.000000 10.150674 23.509327 7.455000 # Ta 
223 1 2 0.000000 10.150674 23.509327 12.425000 # Ta 
224 1 2 0.000000 10.150674 23.509327 17.395000 # Ta 
225 1 2 0.000000 16.270674 5.149326 2.485000 # Ta 
226 1 2 0.000000 16.270674 5.149326 7.455000 # Ta 
227 1 2 0.000000 16.270674 5.149326 12.425000 # Ta 
228 1 2 0.000000 16.270674 5.149326 17.395000 # Ta 
229 1 2 0.000000 16.270674 11.269326 2.485000 # Ta 
230 1 2 0.000000 16.270674 11.269326 7.455000 # Ta 
231 1 2 0.000000 16.270674 11.269326 12.425000 # Ta 
232 1 2 0.000000 16.270674 11.269326 17.395000 # Ta 
233 1 2 0.000000 16.270674 17.389326 2.485000 # Ta 
234 1 2 0.000000 16.270674 17.389326 7.455000 # Ta 
235 1 2 0.000000 16.270674 17.389326 12.425000 # Ta 
236 1 2 0.000000 16.270674 17.389326 17.395000 # Ta 
237 1 2 0.000000 16.270674 23.509327 2.485000 # Ta 
238 1 2 0.000000 16.270674 23.509327 7.455000 # Ta 
239 1 2 0.000000 16.270674 23.509327 12.425000 # Ta 
240 1 2 0.000000 16.270674 23.509327 17.395000 # Ta 
241 1 2 0.000000 22.390675 5.149326 2.485000 # Ta 
242 1 2 0.000000 22.390675 5.149326 7.455000 # Ta 
243 1 2 0.000000 22.390675 5.149326 12.425000 # Ta 
244 1 2 0.000000 22.390675 5.149326 17.395000 # Ta 
245 1 2 0.000000 22.390675 11.269326 2.485000 # Ta 
246 1 2 0.000000 22.390675 11.269326 7.455000 # Ta 
247 1 2 0.000000 22.390675 11.269326 12.425000 # Ta 
248 1 2 0.000000 22.390675 11.269326 17.395000 # Ta 
249 1 2 0.000000 22.390675 17.389326 2.485000 # Ta 
250 1 2 0.000000 22.390675 17.389326 7.455000 # Ta 
251 1 2 0.000000 22.390675 17.389326 12.425000 # Ta 
252 1 2 0.000000 22.390675 17.389326 17.395000 # Ta 
253 1 2 0.000000 22.390675 23.509327 2.485000 # Ta 
254 1 2 0.000000 22.390675 23.509327 7.455000 # Ta 
255 1 2 0.000000 22.390675 23.509327 12.425000 # Ta 
256 1 2 0.000000 22.390675 23.509327 17.395000 # Ta 
257 1 2 0.000000 5.149326 4.030674 0.000000 # Ta 
258 1 2 0.000000 5.149326 4.030674 4.970000 # Ta 
259 1 2 0.000000 5.149326 4.030674 9.940000 # Ta 
260 1 2 0.000000 5.149326 4.030674 14.910000 # Ta 
261 1 2 0.000000 5.149326 10.150674 0.000000 # Ta 
262 1 2 0.000000 5.149326 10.150674 4.970000 # Ta 
263 1 2 0.000000 5.149326 10.150674 9.940000 # Ta 
264 1 2 0.000000 5.149326 10.150674 14.910000 # Ta 
265 1 2 0.000000 5.149326 16.270674 0.000000 # Ta 
266 1 2 0.000000 5.149326 16.270674 4.970000 # Ta 
267 1 2 0.000000 5.149326 16.270674 9.940000 # Ta 
268 1 2 0.000000 5.149326 16.270674 14.910000 # Ta 
269 1 2 0.000000 5.149326 22.390675 0.000000 # Ta 
270 1 2 0.000000 5.149326 22.390675 4.970000 # Ta 
271 1 2 0.000000 5.149326 22.390675 9.940000 # Ta 
272 1 2 0.000000 5.149326 22.390675 14.910000 # Ta 
273 1 2 0.000000 11.269326 4.030674 0.000000 # Ta 
274 1 2 0.000000 11.269326 4.030674 4.970000 # Ta 
275 1 2 0.000000 11.269326 4.030674 9.940000 # Ta 
276 1 2 0.000000 11.269326 4.030674 14.910000 # Ta 
277 1 2 0.000000 11.269326 10.150674 0.000000 # Ta 
278 1 2 0.000000 11.269326 10.150674 4.970000 # Ta 
279 1 2 0.000000 11.269326 10.150674 9.940000 # Ta 
280 1 2 0.000000 11.269326 10.150674 14.910000 # Ta 
281 1 2 0.000000 11.269326 16.270674 0.000000 # Ta 
282 1 2 0.000000 11.269326 16.270674 4.970000 # Ta 
283 1 2 0.000000 11.269326 16.270674 9.940000 # Ta 
284 1 2 0.000000 11.269326 16.270674 14.910000 # Ta 
285 1 2 0.000000 11.269326 22.390675 0.000000 # Ta 
286 1 2 0.000000 11.269326 22.390675 4.970000 # Ta 
287 1 2 0.000000 11.269326 22.390675 9.940000 # Ta 
288 1 2 0.000000 11.269326 22.390675 14.910000 # Ta 
289 1 2 0.000000 17.389326 4.030674 0.000000 # Ta 
290 1 2 0.000000 17.389326 4.030674 4.970000 # Ta 
291 1 2 0.000000 17.389326 4.030674 9.940000 # Ta 
292 1 2 0.000000 17.389326 4.030674 14.910000 # Ta 
293 1 2 0.000000 17.389326 10.150674 0.000000 # Ta 
294 1 2 0.000000 17.389326 10.150674 4.970000 # Ta 
295 1 2 0.000000 17.389326 10.150674 9.940000 # Ta 
296 1 2 0.000000 17.389326 10.150674 14.910000 # Ta 
297 1 2 0.000000 17.389326 16.270674 0.000000 # Ta 
298 1 2 0.000000 17.389326 16.270674 4.970000 # Ta 
299 1 2 0.000000 17.389326 16.270674 9.940000 # Ta 
300 1 2 0.000000 17.389326 16.270674 14.910000 # Ta 
301 1 2 0.000000 17.389326 22.390675 0.000000 # Ta 
302 1 2 0.000000 17.389326 22.390675 4.970000 # Ta 
303 1 2 0.000000 17.389326 22.390675 9.940000 # Ta 
304 1 2 0.000000 17.389326 22.390675 14.910000 # Ta 
305 1 2 0.000000 23.509327 4.030674 0.000000 # Ta 
306 1 2 0.000000 23.509327 4.030674 4.970000 # Ta 
307 1 2 0.000000 23.509327 4.030674 9.940000 # Ta 
308 1 2 0.000000 23.509327 4.030674 14.910000 # Ta 
309 1 2 0.000000 23.509327 10.150674 0.000000 # Ta 
310 1 2 0.000000 23.509327 10.150674 4.970000 # Ta 
311 1 2 0.000000 23.509327 10.150674 9.940000 # Ta 
312 1 2 0.000000 23.509327 10.150674 14.910000 # Ta 
313 1 2 0.000000 23.509327 16.270674 0.000000 # Ta 
314 1 2 0.000000 23.509327 16.270674 4.970000 # Ta 
315 1 2 0.000000 23.509327 16.270674 9.940000 # Ta 
316 1 2 0.000000 23.509327 16.270674 14.910000 # Ta 
317 1 2 0.000000 23.509327 22.390675 0.000000 # Ta 
318 1 2 0.000000 23.509327 22.390675 4.970000 # Ta 
319 1 2 0.000000 23.509327 22.390675 9.940000 # Ta 
320 1 2 0.000000 23.509327 22.390675 14.910000 # Ta 
321 1 2 0.000000 0.970674 4.030674 2.485000 # Ta 
322 1 2 0.000000 0.970674 4.030674 7.455000 # Ta 
323 1 2 0.000000 0.970674 4.030674 12.425000 # Ta 
324 1 2 0.000000 0.970674 4.030674 17.395000 # Ta 
325 1 2 0.000000 0.970674 10.150674 2.485000 # Ta 
326 1 2 0.000000 0.970674 10.150674 7.455000 # Ta 
327 1 2 0.000000 0.970674 10.150674 12.425000 # Ta 
328 1 2 0.000000 0.970674 10.150674 17.395000 # Ta 
329 1 2 0.000000 0.970674 16.270674 2.485000 # Ta 
330 1 2 0.000000 0.970674 16.270674 7.455000 # Ta 
331 1 2 0.000000 0.970674 16.270674 12.425000 # Ta 
332 1 2 0.000000 0.970674 16.270674 17.395000 # Ta 
333 1 2 0.000000 0.970674 22.390675 2.485000 # Ta 
334 1 2 0.000000 0.970674 22.390675 7.455000 # Ta 
335 1 2 0.000000 0.970674 22.390675 12.425000 # Ta 
336 1 2 0.000000 0.970674 22.390675 17.395000 # Ta 
337 1 2 0.000000 7.090674 4.030674 2.485000 # Ta 
338 1 2 0.000000 7.090674 4.030674 7.455000 # Ta 
339 1 2 0.000000 7.090674 4.030674 12.425000 # Ta 
340 1 2 0.000000 7.090674 4.030674 17.395000 # Ta 
341 1 2 0.000000 7.090674 10.150674 2.485000 # Ta 
342 1 2 0.000000 7.090674 10.150674 7.455000 # Ta 
343 1 2 0.000000 7.090674 10.150674 12.425000 # Ta 
344 1 2 0.000000 7.090674 10.150674 17.395000 # Ta 
345 1 2 0.000000 7.090674 16.270674 2.485000 # Ta 
346 1 2 0.000000 7.090674 16.270674 7.455000 # Ta 
347 1 2 0.000000 7.090674 16.270674 12.425000 # Ta 
348 1 2 0.000000 7.090674 16.270674 17.395000 # Ta 
349 1 2 0.000000 7.090674 22.390675 2.485000 # Ta 
350 1 2 0.000000 7.090674 22.390675 7.455000 # Ta 
351 1 2 0.000000 7.090674 22.390675 12.425000 # Ta 
352 1 2 0.000000 7.090674 22.390675 17.395000 # Ta 
353 1 2 0.000000 13.210674 4.030674 2.485000 # Ta 
354 1 2 0.000000 13.210674 4.030674 7.455000 # Ta 
355 1 2 0.000000 13.210674 4.030674 12.425000 # Ta 
356 1 2 0.000000 13.210674 4.030674 17.395000 # Ta 
357 1 2 0.000000 13.210674 10.150674 2.485000 # Ta 
358 1 2 0.000000 13.210674 10.150674 7.455000 # Ta 
359 1 2 0.000000 13.210674 10.150674 12.425000 # Ta 
360 1 2 0.000000 13.210674 10.150674 17.395000 # Ta 
361 1 2 0.000000 13.210674 16.270674 2.485000 # Ta 
362 1 2 0.000000 13.210674 16.270674 7.455000 # Ta 
363 1 2 0.000000 13.210674 16.270674 12.425000 # Ta 
364 1 2 0.000000 13.210674 16.270674 17.395000 # Ta 
365 1 2 0.000000 13.210674 22.390675 2.485000 # Ta 
366 1 2 0.000000 13.210674 22.390675 7.455000 # Ta 
367 1 2 0.000000 13.210674 22.390675 12.425000 # Ta 
368 1 2 0.000000 13.210674 22.390675 17.395000 # Ta 
369 1 2 0.000000 19.330673 4.030674 2.485000 # Ta 
370 1 2 0.000000 19.330673 4.030674 7.455000 # Ta 
371 1 2 0.000000 19.330673 4.030674 12.425000 # Ta 
372 1 2 0.000000 19.330673 4.030674 17.395000 # Ta 
373 1 2 0.000000 19.330673 10.150674 2.485000 # Ta 
374 1 2 0.000000 19.330673 10.150674 7.455000 # Ta 
375 1 2 0.000000 19.330673 10.150674 12.425000 # Ta 
376 1 2 0.000000 19.330673 10.150674 17.395000 # Ta 
377 1 2 0.000000 19.330673 16.270674 2.485000 # Ta 
378 1 2 0.000000 19.330673 16.270674 7.455000 # Ta 
379 1 2 0.000000 19.330673 16.270674 12.425000 # Ta 
380 1 2 0.000000 19.330673 16.270674 17.395000 # Ta 
381 1 2 0.000000 19.330673 22.390675 2.485000 # Ta 
382 1 2 0.000000 19.330673 22.390675 7.455000 # Ta 
383 1 2 0.000000 19.330673 22.390675 12.425000 # Ta 
384 1 2 0.000000 19.330673 22.390675 17.395000 # Ta 
385 1 2 0.000000 5.149326 2.089326 2.485000 # Ta 
386 1 2 0.000000 5.149326 2.089326 7.455000 # Ta 
387 1 2 0.000000 5.149326 2.089326 12.425000 # Ta 
388 1 2 0.000000 5.149326 2.089326 17.395000 # Ta 
389 1 2 0.000000 5.149326 8.209326 2.485000 # Ta 
390 1 2 0.000000 5.149326 8.209326 7.455000 # Ta 
391 1 2 0.000000 5.149326 8.209326 12.425000 # Ta 
392 1 2 0.000000 5.149326 8.209326 17.395000 # Ta 
393 1 2 0.000000 5.149326 14.329326 2.485000 # Ta 
394 1 2 0.000000 5.149326 14.329326 7.455000 # Ta 
395 1 2 0.000000 5.149326 14.329326 12.425000 # Ta 
396 1 2 0.000000 5.149326 14.329326 17.395000 # Ta 
397 1 2 0.000000 5.149326 20.449326 2.485000 # Ta 
398 1 2 0.000000 5.149326 20.449326 7.455000 # Ta 
399 1 2 0.000000 5.149326 20.449326 12.425000 # Ta 
400 1 2 0.000000 5.149326 20.449326 17.395000 # Ta 
401 1 2 0.000000 11.269326 2.089326 2.485000 # Ta 
402 1 2 0.000000 11.269326 2.089326 7.455000 # Ta 
403 1 2 0.000000 11.269326 2.089326 12.425000 # Ta 
404 1 2 0.000000 11.269326 2.089326 17.395000 # Ta 
405 1 2 0.000000 11.269326 8.209326 2.485000 # Ta 
406 1 2 0.000000 11.269326 8.209326 7.455000 # Ta 
407 1 2 0.000000 11.269326 8.209326 12.425000 # Ta 
408 1 2 0.000000 11.269326 8.209326 17.395000 # Ta 
409 1 2 0.000000 11.269326 14.329326 2.485000 # Ta 
410 1 2 0.000000 11.269326 14.329326 7.455000 # Ta 
411 1 2 0.000000 11.269326 14.329326 12.425000 # Ta 
412 1 2 0.000000 11.269326 14.329326 17.395000 # Ta 
413 1 2 0.000000 11.269326 20.449326 2.485000 # Ta 
414 1 2 0.000000 11.269326 20.449326 7.455000 # Ta 
415 1 2 0.000000 11.269326 20.449326 12.425000 # Ta 
416 1 2 0.000000 11.269326 20.449326 17.395000 # Ta 
417 1 2 0.000000 17.389326 2.089326 2.485000 # Ta 
418 1 2 0.000000 17.389326 2.089326 7.455000 # Ta 
419 1 2 0.000000 17.389326 2.089326 12.425000 # Ta 
420 1 2 0.000000 17.389326 2.089326 17.395000 # Ta 
421 1 2 0.000000 17.389326 8.209326 2.485000 # Ta 
422 1 2 0.000000 17.389326 8.209326 7.455000 # Ta 
423 1 2 0.000000 17.389326 8.209326 12.425000 # Ta 
424 1 2 0.000000 17.389326 8.209326 17.395000 # Ta 
425 1 2 0.000000 17.389326 14.329326 2.485000 # Ta 
426 1 2 0.000000 17.389326 14.329326 7.455000 # Ta 
427 1 2 0.000000 17.389326 14.329326 12.425000 # Ta 
428 1 2 0.000000 17.389326 14.329326 17.395000 # Ta 
429 1 2 0.000000 17.389326 20.449326 2.485000 # Ta 
430 1 2 0.000000 17.389326 20.449326 7.455000 # Ta 
431 1 2 0.000000 17.389326 20.449326 12.425000 # Ta 
432 1 2 0.000000 17.389326 20.449326 17.395000 # Ta 
433 1 2 0.000000 23.509327 2.089326 2.485000 # Ta 
434 1 2 0.000000 23.509327 2.089326 7.455000 # Ta 
435 1 2 0.000000 23.509327 2.089326 12.425000 # Ta 
436 1 2 0.000000 23.509327 2.089326 17.395000 # Ta 
437 1 2 0.000000 23.509327 8.209326 2.485000 # Ta 
438 1 2 0.000000 23.509327 8.209326 7.455000 # Ta 
439 1 2 0.000000 23.509327 8.209326 12.425000 # Ta 
440 1 2 0.000000 23.509327 8.209326 17.395000 # Ta 
441 1 2 0.000000 23.509327 14.329326 2.485000 # Ta 
442 1 2 0.000000 23.509327 14.329326 7.455000 # Ta 
443 1 2 0.000000 23.509327 14.329326 12.425000 # Ta 
444 1 2 0.000000 23.509327 14.329326 17.395000 # Ta 
445 1 2 0.000000 23.509327 20.449326 2.485000 # Ta 
446 1 2 0.000000 23.509327 20.449326 7.455000 # Ta 
447 1 2 0.000000 23.509327 20.449326 12.425000 # Ta 
448 1 2 0.000000 23.509327 20.449326 17.395000 # Ta 
449 1 2 0.000000 0.970674 2.089326 0.000000 # Ta 
450 1 2 0.000000 0.970674 2.089326 4.970000 # Ta 
451 1 2 0.000000 0.970674 2.089326 9.940000 # Ta 
452 1 2 0.000000 0.970674 2.089326 14.910000 # Ta 
453 1 2 0.000000 0.970674 8.209326 0.000000 # Ta 
454 1 2 0.000000 0.970674 8.209326 4.970000 # Ta 
455 1 2 0.000000 0.970674 8.209326 9.940000 # Ta 
456 1 2 0.000000 0.970674 8.209326 14.910000 # Ta 
457 1 2 0.000000 0.970674 14.329326 0.000000 # Ta 
458 1 2 0.000000 0.970674 14.329326 4.970000 # Ta 
459 1 2 0.000000 0.970674 14.329326 9.940000 # Ta 
460 1 2 0.000000 0.970674 14.329326 14.910000 # Ta 
461 1 2 0.000000 0.970674 20.449326 0.000000 # Ta 
462 1 2 0.000000 0.970674 20.449326 4.970000 # Ta 
463 1 2 0.000000 0.970674 20.449326 9.940000 # Ta 
464 1 2 0.000000 0.970674 20.449326 14.910000 # Ta 
465 1 2 0.000000 7.090674 2.089326 0.000000 # Ta 
466 1 2 0.000000 7.090674 2.089326 4.970000 # Ta 
467 1 2 0.000000 7.090674 2.089326 9.940000 # Ta 
468 1 2 0.000000 7.090674 2.089326 14.910000 # Ta 
469 1 2 0.000000 7.090674 8.209326 0.000000 # Ta 
470 1 2 0.000000 7.090674 8.209326 4.970000 # Ta 
471 1 2 0.000000 7.090674 8.209326 9.940000 # Ta 
472 1 2 0.000000 7.090674 8.209326 14.910000 # Ta 
473 1 2 0.000000 7.090674 14.329326 0.000000 # Ta 
474 1 2 0.000000 7.090674 14.329326 4.970000 # Ta 
475 1 2 0.000000 7.090674 14.329326 9.940000 # Ta 
476 1 2 0.000000 7.090674 14.329326 14.910000 # Ta 
477 1 2 0.000000 7.090674 20.449326 0.000000 # Ta 
478 1 2 0.000000 7.090674 20.449326 4.970000 # Ta 
479 1 2 0.000000 7.090674 20.449326 9.940000 # Ta 
480 1 2 0.000000 7.090674 20.449326 14.910000 # Ta 
481 1 2 0.000000 13.210674 2.089326 0.000000 # Ta 
482 1 2 0.000000 13.210674 2.089326 4.970000 # Ta 
483 1 2 0.000000 13.210674 2.089326 9.940000 # Ta 
484 1 2 0.000000 13.210674 2.089326 14.910000 # Ta 
485 1 2 0.000000 13.210674 8.209326 0.000000 # Ta 
486 1 2 0.000000 13.210674 8.209326 4.970000 # Ta 
487 1 2 0.000000 13.210674 8.209326 9.940000 # Ta 
488 1 2 0.000000 13.210674 8.209326 14.910000 # Ta 
489 1 2 0.000000 13.210674 14.329326 0.000000 # Ta 
490 1 2 0.000000 13.210674 14.329326 4.970000 # Ta 
491 1 2 0.000000 13.210674 14.329326 9.940000 # Ta 
492 1 2 0.000000 13.210674 14.329326 14.910000 # Ta 
493 1 2 0.000000 13.210674 20.449326 0.000000 # Ta 
494 1 2 0.000000 13.210674 20.449326 4.970000 # Ta 
495 1 2 0.000000 13.210674 20.449326 9.940000 # Ta 
496 1 2 0.000000 13.210674 20.449326 14.910000 # Ta 
497 1 2 0.000000 19.330673 2.089326 0.000000 # Ta 
498 1 2 0.000000 19.330673 2.089326 4.970000 # Ta 
499 1 2 0.000000 19.330673 2.089326 9.940000 # Ta 
500 1 2 0.000000 19.330673 2.089326 14.910000 # Ta 
501 1 2 0.000000 19.330673 8.209326 0.000000 # Ta 
502 1 2 0.000000 19.330673 8.209326 4.970000 # Ta 
503 1 2 0.000000 19.330673 8.209326 9.940000 # Ta 
504 1 2 0.000000 19.330673 8.209326 14.910000 # Ta 
505 1 2 0.000000 19.330673 14.329326 0.000000 # Ta 
506 1 2 0.000000 19.330673 14.329326 4.970000 # Ta 
507 1 2 0.000000 19.330673 14.329326 9.940000 # Ta 
508 1 2 0.000000 19.330673 14.329326 14.910000 # Ta 
509 1 2 0.000000 19.330673 20.449326 0.000000 # Ta 
510 1 2 0.000000 19.330673 20.449326 4.970000 # Ta 
511 1 2 0.000000 19.330673 20.449326 9.940000 # Ta 
512 1 2 0.000000 19.330673 20.449326 14.910000 # Ta 
513 1 1 0.000000 0.000000 0.000000 1.242500 # Co 
514 1 1 0.000000 0.000000 0.000000 6.212500 # Co 
515 1 1 0.000000 0.000000 0.000000 11.182500 # Co 
516 1 1 0.000000 0.000000 0.000000 16.152500 # Co 
517 1 1 0.000000 0.000000 6.120000 1.242500 # Co 
518 1 1 0.000000 0.000000 6.120000 6.212500 # Co 
519 1 1 0.000000 0.000000 6.120000 11.182500 # Co 
520 1 1 0.000000 0.000000 6.120000 16.152500 # Co 
521 1 1 0.000000 0.000000 12.240000 1.242500 # Co 
522 1 1 0.000000 0.000000 12.240000 6.212500 # Co 
523 1 1 0.000000 0.000000 12.240000 11.182500 # Co 
524 1 1 0.000000 0.000000 12.240000 16.152500 # Co 
525 1 1 0.000000 0.000000 18.360001 1.242500 # Co 
526 1 1 0.000000 0.000000 18.360001 6.212500 # Co 
527 1 1 0.000000 0.000000 18.360001 11.182500 # Co 
528 1 1 0.000000 0.000000 18.360001 16.152500 # Co 
529 1 1 0.000000 6.120000 0.000000 1.242500 # Co 
530 1 1 0.000000 6.120000 0.000000 6.212500 # Co 
531 1 1 0.000000 6.120000 0.000000 11.182500 # Co 
532 1 1 0.000000 6.120000 0.000000 16.152500 # Co 
533 1 1 0.000000 6.120000 6.120000 1.242500 # Co 
534 1 1 0.000000 6.120000 6.120000 6.212500 # Co 
535 1 1 0.000000 6.120000 6.120000 11.182500 # Co 
536 1 1 0.000000 6.120000 6.120000 16.152500 # Co 
537 1 1 0.000000 6.120000 12.240000 1.242500 # Co 
538 1 1 0.000000 6.120000 12.240000 6.212500 # Co 
539 1 1 0.000000 6.120000 12.240000 11.182500 # Co 
540 1 1 0.000000 6.120000 12.240000 16.152500 # Co 
541 1 1 0.000000 6.120000 18.360001 1.242500 # Co 
542 1 1 0.000000 6.120000 18.360001 6.212500 # Co 
543 1 1 0.000000 6.120000 18.360001 11.182500 # Co 
544 1 1 0.000000 6.120000 18.360001 16.152500 # Co 
545 1 1 0.000000 12.240000 0.000000 1.242500 # Co 
546 1 1 0.000000 12.240000 0.000000 6.212500 # Co 
547 1 1 0.000000 12.240000 0.000000 11.182500 # Co 
548 1 1 0.000000 12.240000 0.000000 16.152500 # Co 
549 1 1 0.000000 12.240000 6.120000 1.242500 # Co 
550 1 1 0.000000 12.240000 6.120000 6.212500 # Co 
551 1 1 0.000000 12.240000 6.120000 11.182500 # Co 
552 1 1 0.000000 12.240000 6.120000 16.152500 # Co 
553 1 1 0.000000 12.240000 12.240000 1.242500 # Co 
554 1 1 0.000000 12.240000 12.240000 6.212500 # Co 
555 1 1 0.000000 12.240000 12.240000 11.182500 # Co 
556 1 1 0.000000 12.240000 12.240000 16.152500 # Co 
557 1 1 0.000000 12.240000 18.360001 1.242500 # Co 
558 1 1 0.000000 12.240000 18.360001 6.212500 # Co 
559 1 1 0.000000 12.240000 18.360001 11.182500 # Co 
560 1 1 0.000000 12.240000 18.360001 16.152500 # Co 
561 1 1 0.000000 18.360001 0.000000 1.242500 # Co 
562 1 1 0.000000 18.360001 0.000000 6.212500 # Co 
563 1 1 0.000000 18.360001 0.000000 11.182500 # Co 
564 1 1 0.000000 18.360001 0.000000 16.152500 # Co 
565 1 1 0.000000 18.360001 6.120000 1.242500 # Co 
566 1 1 0.000000 18.360001 6.120000 6.212500 # Co 
567 1 1 0.000000 18.360001 6.120000 11.182500 # Co 
568 1 1 0.000000 18.360001 6.120000 16.152500 # Co 
569 1 1 0.000000 18.360001 12.240000 1.242500 # Co 
570 1 1 0.000000 18.360001 12.240000 6.212500 # Co 
571 1 1 0.000000 18.360001 12.240000 11.182500 # Co 
572 1 1 0.000000 18.360001 12.240000 16.152500 # Co 
573 1 1 0.000000 18.360001 18.360001 1.242500 # Co 
574 1 1 0.000000 18.360001 18.360001 6.212500 # Co 
575 1 1 0.000000 18.360001 18.360001 11.182500 # Co 