ITEM: TIMESTEP
0
ITEM: NUMBER OF ATOMS
768
ITEM: BOX BOUNDS pp pp pp
-4.9533700000000003e-01 2.4004663000000001e+01
-4.9533700000000003e-01 2.4004663000000001e+01
-6.3124999999999998e-01 1.9268750000000001e+01
ITEM: ATOMS id type xs ys zs
1 2 0.105496 0.0598372 0.156595
449 2 0.0598372 0.105496 0.0317211
513 1 0.0202178 0.0202178 0.0941583
65 2 0.184735 0.0598372 0.0317211
385 2 0.230394 0.105496 0.156595
529 1 0.270014 0.0202178 0.0941583
17 2 0.355292 0.0598372 0.156595
465 2 0.309633 0.105496 0.0317211
81 2 0.434531 0.0598372 0.0317211
401 2 0.48019 0.105496 0.156595
481 2 0.559429 0.105496 0.0317211
545 1 0.51981 0.0202178 0.0941583
33 2 0.605088 0.0598372 0.156595
97 2 0.684327 0.0598372 0.0317211
49 2 0.854884 0.0598372 0.156595
417 2 0.729986 0.105496 0.156595
497 2 0.809225 0.105496 0.0317211
561 1 0.769606 0.0202178 0.0941583
113 2 0.934123 0.0598372 0.0317211
433 2 0.979782 0.105496 0.156595
129 2 0.105496 0.230394 0.0317211
321 2 0.0598372 0.184735 0.156595
517 1 0.0202178 0.270014 0.0941583
193 2 0.184735 0.230394 0.156595
257 2 0.230394 0.184735 0.0317211
533 1 0.270014 0.270014 0.0941583
705 1 0.145116 0.145116 0.0941583
145 2 0.355292 0.230394 0.0317211
337 2 0.309633 0.184735 0.156595
721 1 0.394912 0.145116 0.0941583
209 2 0.434531 0.230394 0.156595
273 2 0.48019 0.184735 0.0317211
353 2 0.559429 0.184735 0.156595
549 1 0.51981 0.270014 0.0941583
161 2 0.605088 0.230394 0.0317211
225 2 0.684327 0.230394 0.156595
737 1 0.644708 0.145116 0.0941583
177 2 0.854884 0.230394 0.0317211
289 2 0.729986 0.184735 0.0317211
369 2 0.809225 0.184735 0.156595
565 1 0.769606 0.270014 0.0941583
241 2 0.934123 0.230394 0.156595
305 2 0.979782 0.184735 0.0317211
753 1 0.894504 0.145116 0.0941583
5 2 0.105496 0.309633 0.156595
453 2 0.0598372 0.355292 0.0317211
69 2 0.184735 0.309633 0.0317211
389 2 0.230394 0.355292 0.156595
709 1 0.145116 0.394912 0.0941583
21 2 0.355292 0.309633 0.156595
469 2 0.309633 0.355292 0.0317211
725 1 0.394912 0.394912 0.0941583
85 2 0.434531 0.309633 0.0317211
405 2 0.48019 0.355292 0.156595
485 2 0.559429 0.355292 0.0317211
37 2 0.605088 0.309633 0.156595
101 2 0.684327 0.309633 0.0317211
741 1 0.644708 0.394912 0.0941583
53 2 0.854884 0.309633 0.156595
421 2 0.729986 0.355292 0.156595
501 2 0.809225 0.355292 0.0317211
117 2 0.934123 0.309633 0.0317211
437 2 0.979782 0.355292 0.156595
757 1 0.894504 0.394912 0.0941583
9 2 0.105496 0.559429 0.156595
133 2 0.105496 0.48019 0.0317211
325 2 0.0598372 0.434531 0.156595
521 1 0.0202178 0.51981 0.0941583
73 2 0.184735 0.559429 0.0317211
197 2 0.184735 0.48019 0.156595
261 2 0.230394 0.434531 0.0317211
537 1 0.270014 0.51981 0.0941583
25 2 0.355292 0.559429 0.156595
149 2 0.355292 0.48019 0.0317211
341 2 0.309633 0.434531 0.156595
89 2 0.434531 0.559429 0.0317211
213 2 0.434531 0.48019 0.156595
277 2 0.48019 0.434531 0.0317211
357 2 0.559429 0.434531 0.156595
553 1 0.51981 0.51981 0.0941583
41 2 0.605088 0.559429 0.156595
105 2 0.684327 0.559429 0.0317211
165 2 0.605088 0.48019 0.0317211
229 2 0.684327 0.48019 0.156595
57 2 0.854884 0.559429 0.156595
181 2 0.854884 0.48019 0.0317211
293 2 0.729986 0.434531 0.0317211
373 2 0.809225 0.434531 0.156595
569 1 0.769606 0.51981 0.0941583
121 2 0.934123 0.559429 0.0317211
245 2 0.934123 0.48019 0.156595
309 2 0.979782 0.434531 0.0317211
329 2 0.0598372 0.684327 0.156595
457 2 0.0598372 0.605088 0.0317211
265 2 0.230394 0.684327 0.0317211
393 2 0.230394 0.605088 0.156595
713 1 0.145116 0.644708 0.0941583
345 2 0.309633 0.684327 0.156595
473 2 0.309633 0.605088 0.0317211
729 1 0.394912 0.644708 0.0941583
281 2 0.48019 0.684327 0.0317211
361 2 0.559429 0.684327 0.156595
409 2 0.48019 0.605088 0.156595
489 2 0.559429 0.605088 0.0317211
745 1 0.644708 0.644708 0.0941583
297 2 0.729986 0.684327 0.0317211
377 2 0.809225 0.684327 0.156595
425 2 0.729986 0.605088 0.156595
505 2 0.809225 0.605088 0.0317211
313 2 0.979782 0.684327 0.0317211
441 2 0.979782 0.605088 0.156595
761 1 0.894504 0.644708 0.0941583
13 2 0.105496 0.809225 0.156595
137 2 0.105496 0.729986 0.0317211
461 2 0.0598372 0.854884 0.0317211
525 1 0.0202178 0.769606 0.0941583
77 2 0.184735 0.809225 0.0317211
201 2 0.184735 0.729986 0.156595
397 2 0.230394 0.854884 0.156595
541 1 0.270014 0.769606 0.0941583
29 2 0.355292 0.809225 0.156595
153 2 0.355292 0.729986 0.0317211
477 2 0.309633 0.854884 0.0317211
93 2 0.434531 0.809225 0.0317211
217 2 0.434531 0.729986 0.156595
413 2 0.48019 0.854884 0.156595
493 2 0.559429 0.854884 0.0317211
557 1 0.51981 0.769606 0.0941583
45 2 0.605088 0.809225 0.156595
109 2 0.684327 0.809225 0.0317211
169 2 0.605088 0.729986 0.0317211
233 2 0.684327 0.729986 0.156595
61 2 0.854884 0.809225 0.156595
185 2 0.854884 0.729986 0.0317211
429 2 0.729986 0.854884 0.156595
509 2 0.809225 0.854884 0.0317211
573 1 0.769606 0.769606 0.0941583
125 2 0.934123 0.809225 0.0317211
249 2 0.934123 0.729986 0.156595
445 2 0.979782 0.854884 0.156595
141 2 0.105496 0.979782 0.0317211
333 2 0.0598372 0.934123 0.156595
205 2 0.184735 0.979782 0.156595
269 2 0.230394 0.934123 0.0317211
717 1 0.145116 0.894504 0.0941583
157 2 0.355292 0.979782 0.0317211
349 2 0.309633 0.934123 0.156595
733 1 0.394912 0.894504 0.0941583
221 2 0.434531 0.979782 0.156595
285 2 0.48019 0.934123 0.0317211
365 2 0.559429 0.934123 0.156595
173 2 0.605088 0.979782 0.0317211
237 2 0.684327 0.979782 0.156595
749 1 0.644708 0.894504 0.0941583
189 2 0.854884 0.979782 0.0317211
301 2 0.729986 0.934123 0.0317211
381 2 0.809225 0.934123 0.156595
253 2 0.934123 0.979782 0.156595
317 2 0.979782 0.934123 0.0317211
765 1 0.894504 0.894504 0.0941583
450 2 0.0598372 0.105496 0.28147
514 1 0.0202178 0.0202178 0.343907
577 1 0.0202178 0.0202178 0.219033
66 2 0.184735 0.0598372 0.28147
530 1 0.270014 0.0202178 0.343907
593 1 0.270014 0.0202178 0.219033
466 2 0.309633 0.105496 0.28147
82 2 0.434531 0.0598372 0.28147
482 2 0.559429 0.105496 0.28147
546 1 0.51981 0.0202178 0.343907
609 1 0.51981 0.0202178 0.219033
98 2 0.684327 0.0598372 0.28147
498 2 0.809225 0.105496 0.28147
562 1 0.769606 0.0202178 0.343907
625 1 0.769606 0.0202178 0.219033
114 2 0.934123 0.0598372 0.28147
130 2 0.105496 0.230394 0.28147
518 1 0.0202178 0.270014 0.343907
581 1 0.0202178 0.270014 0.219033
258 2 0.230394 0.184735 0.28147
534 1 0.270014 0.270014 0.343907
597 1 0.270014 0.270014 0.219033
641 1 0.145116 0.145116 0.219033
706 1 0.145116 0.145116 0.343907
146 2 0.355292 0.230394 0.28147
657 1 0.394912 0.145116 0.219033
722 1 0.394912 0.145116 0.343907
274 2 0.48019 0.184735 0.28147
550 1 0.51981 0.270014 0.343907
613 1 0.51981 0.270014 0.219033
162 2 0.605088 0.230394 0.28147
673 1 0.644708 0.145116 0.219033
738 1 0.644708 0.145116 0.343907
178 2 0.854884 0.230394 0.28147
290 2 0.729986 0.184735 0.28147
566 1 0.769606 0.270014 0.343907
629 1 0.769606 0.270014 0.219033
306 2 0.979782 0.184735 0.28147
689 1 0.894504 0.145116 0.219033
754 1 0.894504 0.145116 0.343907
454 2 0.0598372 0.355292 0.28147
70 2 0.184735 0.309633 0.28147
645 1 0.145116 0.394912 0.219033
710 1 0.145116 0.394912 0.343907
470 2 0.309633 0.355292 0.28147
661 1 0.394912 0.394912 0.219033
726 1 0.394912 0.394912 0.343907
86 2 0.434531 0.309633 0.28147
486 2 0.559429 0.355292 0.28147
102 2 0.684327 0.309633 0.28147
677 1 0.644708 0.394912 0.219033
742 1 0.644708 0.394912 0.343907
502 2 0.809225 0.355292 0.28147
118 2 0.934123 0.309633 0.28147
693 1 0.894504 0.394912 0.219033
758 1 0.894504 0.394912 0.343907
134 2 0.105496 0.48019 0.28147
522 1 0.0202178 0.51981 0.343907
585 1 0.0202178 0.51981 0.219033
74 2 0.184735 0.559429 0.28147
262 2 0.230394 0.434531 0.28147
538 1 0.270014 0.51981 0.343907
601 1 0.270014 0.51981 0.219033
150 2 0.355292 0.48019 0.28147
90 2 0.434531 0.559429 0.28147
278 2 0.48019 0.434531 0.28147
554 1 0.51981 0.51981 0.343907
617 1 0.51981 0.51981 0.219033
106 2 0.684327 0.559429 0.28147
166 2 0.605088 0.48019 0.28147
182 2 0.854884 0.48019 0.28147
294 2 0.729986 0.434531 0.28147
570 1 0.769606 0.51981 0.343907
633 1 0.769606 0.51981 0.219033
122 2 0.934123 0.559429 0.28147
310 2 0.979782 0.434531 0.28147
458 2 0.0598372 0.605088 0.28147
266 2 0.230394 0.684327 0.28147
649 1 0.145116 0.644708 0.219033
714 1 0.145116 0.644708 0.343907
474 2 0.309633 0.605088 0.28147
665 1 0.394912 0.644708 0.219033
730 1 0.394912 0.644708 0.343907
282 2 0.48019 0.684327 0.28147
490 2 0.559429 0.605088 0.28147
681 1 0.644708 0.644708 0.219033
746 1 0.644708 0.644708 0.343907
298 2 0.729986 0.684327 0.28147
506 2 0.809225 0.605088 0.28147
314 2 0.979782 0.684327 0.28147
697 1 0.894504 0.644708 0.219033
762 1 0.894504 0.644708 0.343907
138 2 0.105496 0.729986 0.28147
462 2 0.0598372 0.854884 0.28147
526 1 0.0202178 0.769606 0.343907
589 1 0.0202178 0.769606 0.219033
78 2 0.184735 0.809225 0.28147
542 1 0.270014 0.769606 0.343907
605 1 0.270014 0.769606 0.219033
154 2 0.355292 0.729986 0.28147
478 2 0.309633 0.854884 0.28147
94 2 0.434531 0.809225 0.28147
494 2 0.559429 0.854884 0.28147
558 1 0.51981 0.769606 0.343907
621 1 0.51981 0.769606 0.219033
110 2 0.684327 0.809225 0.28147
170 2 0.605088 0.729986 0.28147
186 2 0.854884 0.729986 0.28147
510 2 0.809225 0.854884 0.28147
574 1 0.769606 0.769606 0.343907
637 1 0.769606 0.769606 0.219033
126 2 0.934123 0.809225 0.28147
142 2 0.105496 0.979782 0.28147
270 2 0.230394 0.934123 0.28147
653 1 0.145116 0.894504 0.219033
718 1 0.145116 0.894504 0.343907
158 2 0.355292 0.979782 0.28147
669 1 0.394912 0.894504 0.219033
734 1 0.394912 0.894504 0.343907
286 2 0.48019 0.934123 0.28147
174 2 0.605088 0.979782 0.28147
685 1 0.644708 0.894504 0.219033
750 1 0.644708 0.894504 0.343907
190 2 0.854884 0.979782 0.28147
302 2 0.729986 0.934123 0.28147
318 2 0.979782 0.934123 0.28147
701 1 0.894504 0.894504 0.219033
766 1 0.894504 0.894504 0.343907
2 2 0.105496 0.0598372 0.406344
451 2 0.0598372 0.105496 0.531219
515 1 0.0202178 0.0202178 0.593656
578 1 0.0202178 0.0202178 0.468781
67 2 0.184735 0.0598372 0.531219
386 2 0.230394 0.105496 0.406344
531 1 0.270014 0.0202178 0.593656
594 1 0.270014 0.0202178 0.468781
18 2 0.355292 0.0598372 0.406344
467 2 0.309633 0.105496 0.531219
83 2 0.434531 0.0598372 0.531219
402 2 0.48019 0.105496 0.406344
483 2 0.559429 0.105496 0.531219
547 1 0.51981 0.0202178 0.593656
610 1 0.51981 0.0202178 0.468781
34 2 0.605088 0.0598372 0.406344
99 2 0.684327 0.0598372 0.531219
50 2 0.854884 0.0598372 0.406344
418 2 0.729986 0.105496 0.406344
499 2 0.809225 0.105496 0.531219
563 1 0.769606 0.0202178 0.593656
626 1 0.769606 0.0202178 0.468781
115 2 0.934123 0.0598372 0.531219
434 2 0.979782 0.105496 0.406344
131 2 0.105496 0.230394 0.531219
322 2 0.0598372 0.184735 0.406344
519 1 0.0202178 0.270014 0.593656
582 1 0.0202178 0.270014 0.468781
194 2 0.184735 0.230394 0.406344
259 2 0.230394 0.184735 0.531219
535 1 0.270014 0.270014 0.593656
598 1 0.270014 0.270014 0.468781
642 1 0.145116 0.145116 0.468781
707 1 0.145116 0.145116 0.593656
147 2 0.355292 0.230394 0.531219
338 2 0.309633 0.184735 0.406344
658 1 0.394912 0.145116 0.468781
723 1 0.394912 0.145116 0.593656
210 2 0.434531 0.230394 0.406344
275 2 0.48019 0.184735 0.531219
354 2 0.559429 0.184735 0.406344
551 1 0.51981 0.270014 0.593656
614 1 0.51981 0.270014 0.468781
163 2 0.605088 0.230394 0.531219
226 2 0.684327 0.230394 0.406344
674 1 0.644708 0.145116 0.468781
739 1 0.644708 0.145116 0.593656
179 2 0.854884 0.230394 0.531219
291 2 0.729986 0.184735 0.531219
370 2 0.809225 0.184735 0.406344
567 1 0.769606 0.270014 0.593656
630 1 0.769606 0.270014 0.468781
242 2 0.934123 0.230394 0.406344
307 2 0.979782 0.184735 0.531219
690 1 0.894504 0.145116 0.468781
755 1 0.894504 0.145116 0.593656
6 2 0.105496 0.309633 0.406344
455 2 0.0598372 0.355292 0.531219
71 2 0.184735 0.309633 0.531219
390 2 0.230394 0.355292 0.406344
646 1 0.145116 0.394912 0.468781
711 1 0.145116 0.394912 0.593656
22 2 0.355292 0.309633 0.406344
471 2 0.309633 0.355292 0.531219
662 1 0.394912 0.394912 0.468781
727 1 0.394912 0.394912 0.593656
87 2 0.434531 0.309633 0.531219
406 2 0.48019 0.355292 0.406344
487 2 0.559429 0.355292 0.531219
38 2 0.605088 0.309633 0.406344
103 2 0.684327 0.309633 0.531219
678 1 0.644708 0.394912 0.468781
743 1 0.644708 0.394912 0.593656
54 2 0.854884 0.309633 0.406344
422 2 0.729986 0.355292 0.406344
503 2 0.809225 0.355292 0.531219
119 2 0.934123 0.309633 0.531219
438 2 0.979782 0.355292 0.406344
694 1 0.894504 0.394912 0.468781
759 1 0.894504 0.394912 0.593656
10 2 0.105496 0.559429 0.406344
135 2 0.105496 0.48019 0.531219
326 2 0.0598372 0.434531 0.406344
523 1 0.0202178 0.51981 0.593656
586 1 0.0202178 0.51981 0.468781
75 2 0.184735 0.559429 0.531219
198 2 0.184735 0.48019 0.406344
263 2 0.230394 0.434531 0.531219
539 1 0.270014 0.51981 0.593656
602 1 0.270014 0.51981 0.468781
26 2 0.355292 0.559429 0.406344
151 2 0.355292 0.48019 0.531219
342 2 0.309633 0.434531 0.406344
91 2 0.434531 0.559429 0.531219
214 2 0.434531 0.48019 0.406344
279 2 0.48019 0.434531 0.531219
358 2 0.559429 0.434531 0.406344
555 1 0.51981 0.51981 0.593656
618 1 0.51981 0.51981 0.468781
42 2 0.605088 0.559429 0.406344
107 2 0.684327 0.559429 0.531219
167 2 0.605088 0.48019 0.531219
230 2 0.684327 0.48019 0.406344
58 2 0.854884 0.559429 0.406344
183 2 0.854884 0.48019 0.531219
295 2 0.729986 0.434531 0.531219
374 2 0.809225 0.434531 0.406344
571 1 0.769606 0.51981 0.593656
634 1 0.769606 0.51981 0.468781
123 2 0.934123 0.559429 0.531219
246 2 0.934123 0.48019 0.406344
311 2 0.979782 0.434531 0.531219
330 2 0.0598372 0.684327 0.406344
459 2 0.0598372 0.605088 0.531219
267 2 0.230394 0.684327 0.531219
394 2 0.230394 0.605088 0.406344
650 1 0.145116 0.644708 0.468781
715 1 0.145116 0.644708 0.593656
346 2 0.309633 0.684327 0.406344
475 2 0.309633 0.605088 0.531219
666 1 0.394912 0.644708 0.468781
731 1 0.394912 0.644708 0.593656
283 2 0.48019 0.684327 0.531219
362 2 0.559429 0.684327 0.406344
410 2 0.48019 0.605088 0.406344
491 2 0.559429 0.605088 0.531219
682 1 0.644708 0.644708 0.468781
747 1 0.644708 0.644708 0.593656
299 2 0.729986 0.684327 0.531219
378 2 0.809225 0.684327 0.406344
426 2 0.729986 0.605088 0.406344
507 2 0.809225 0.605088 0.531219
315 2 0.979782 0.684327 0.531219
442 2 0.979782 0.605088 0.406344
698 1 0.894504 0.644708 0.468781
763 1 0.894504 0.644708 0.593656
14 2 0.105496 0.809225 0.406344
139 2 0.105496 0.729986 0.531219
463 2 0.0598372 0.854884 0.531219
527 1 0.0202178 0.769606 0.593656
590 1 0.0202178 0.769606 0.468781
79 2 0.184735 0.809225 0.531219
202 2 0.184735 0.729986 0.406344
398 2 0.230394 0.854884 0.406344
543 1 0.270014 0.769606 0.593656
606 1 0.270014 0.769606 0.468781
30 2 0.355292 0.809225 0.406344
155 2 0.355292 0.729986 0.531219
479 2 0.309633 0.854884 0.531219
95 2 0.434531 0.809225 0.531219
218 2 0.434531 0.729986 0.406344
414 2 0.48019 0.854884 0.406344
495 2 0.559429 0.854884 0.531219
559 1 0.51981 0.769606 0.593656
622 1 0.51981 0.769606 0.468781
46 2 0.605088 0.809225 0.406344
111 2 0.684327 0.809225 0.531219
171 2 0.605088 0.729986 0.531219
234 2 0.684327 0.729986 0.406344
62 2 0.854884 0.809225 0.406344
187 2 0.854884 0.729986 0.531219
430 2 0.729986 0.854884 0.406344
511 2 0.809225 0.854884 0.531219
575 1 0.769606 0.769606 0.593656
638 1 0.769606 0.769606 0.468781
127 2 0.934123 0.809225 0.531219
250 2 0.934123 0.729986 0.406344
446 2 0.979782 0.854884 0.406344
143 2 0.105496 0.979782 0.531219
334 2 0.0598372 0.934123 0.406344
206 2 0.184735 0.979782 0.406344
271 2 0.230394 0.934123 0.531219
654 1 0.145116 0.894504 0.468781
719 1 0.145116 0.894504 0.593656
159 2 0.355292 0.979782 0.531219
350 2 0.309633 0.934123 0.406344
670 1 0.394912 0.894504 0.468781
735 1 0.394912 0.894504 0.593656
222 2 0.434531 0.979782 0.406344
287 2 0.48019 0.934123 0.531219
366 2 0.559429 0.934123 0.406344
175 2 0.605088 0.979782 0.531219
238 2 0.684327 0.979782 0.406344
686 1 0.644708 0.894504 0.468781
751 1 0.644708 0.894504 0.593656
191 2 0.854884 0.979782 0.531219
303 2 0.729986 0.934123 0.531219
382 2 0.809225 0.934123 0.406344
254 2 0.934123 0.979782 0.406344
319 2 0.979782 0.934123 0.531219
702 1 0.894504 0.894504 0.468781
767 1 0.894504 0.894504 0.593656
3 2 0.105496 0.0598372 0.656093
452 2 0.0598372 0.105496 0.780967
579 1 0.0202178 0.0202178 0.71853
68 2 0.184735 0.0598372 0.780967
387 2 0.230394 0.105496 0.656093
595 1 0.270014 0.0202178 0.71853
19 2 0.355292 0.0598372 0.656093
468 2 0.309633 0.105496 0.780967
84 2 0.434531 0.0598372 0.780967
403 2 0.48019 0.105496 0.656093
484 2 0.559429 0.105496 0.780967
611 1 0.51981 0.0202178 0.71853
35 2 0.605088 0.0598372 0.656093
100 2 0.684327 0.0598372 0.780967
51 2 0.854884 0.0598372 0.656093
419 2 0.729986 0.105496 0.656093
500 2 0.809225 0.105496 0.780967
627 1 0.769606 0.0202178 0.71853
116 2 0.934123 0.0598372 0.780967
435 2 0.979782 0.105496 0.656093
132 2 0.105496 0.230394 0.780967
323 2 0.0598372 0.184735 0.656093
583 1 0.0202178 0.270014 0.71853
195 2 0.184735 0.230394 0.656093
260 2 0.230394 0.184735 0.780967
599 1 0.270014 0.270014 0.71853
643 1 0.145116 0.145116 0.71853
148 2 0.355292 0.230394 0.780967
339 2 0.309633 0.184735 0.656093
659 1 0.394912 0.145116 0.71853
211 2 0.434531 0.230394 0.656093
276 2 0.48019 0.184735 0.780967
355 2 0.559429 0.184735 0.656093
615 1 0.51981 0.270014 0.71853
164 2 0.605088 0.230394 0.780967
227 2 0.684327 0.230394 0.656093
675 1 0.644708 0.145116 0.71853
180 2 0.854884 0.230394 0.780967
292 2 0.729986 0.184735 0.780967
371 2 0.809225 0.184735 0.656093
631 1 0.769606 0.270014 0.71853
243 2 0.934123 0.230394 0.656093
308 2 0.979782 0.184735 0.780967
691 1 0.894504 0.145116 0.71853
7 2 0.105496 0.309633 0.656093
456 2 0.0598372 0.355292 0.780967
72 2 0.184735 0.309633 0.780967
391 2 0.230394 0.355292 0.656093
647 1 0.145116 0.394912 0.71853
23 2 0.355292 0.309633 0.656093
472 2 0.309633 0.355292 0.780967
663 1 0.394912 0.394912 0.71853
88 2 0.434531 0.309633 0.780967
407 2 0.48019 0.355292 0.656093
488 2 0.559429 0.355292 0.780967
39 2 0.605088 0.309633 0.656093
104 2 0.684327 0.309633 0.780967
679 1 0.644708 0.394912 0.71853
55 2 0.854884 0.309633 0.656093
423 2 0.729986 0.355292 0.656093
504 2 0.809225 0.355292 0.780967
120 2 0.934123 0.309633 0.780967
439 2 0.979782 0.355292 0.656093
695 1 0.894504 0.394912 0.71853
11 2 0.105496 0.559429 0.656093
136 2 0.105496 0.48019 0.780967
327 2 0.0598372 0.434531 0.656093
587 1 0.0202178 0.51981 0.71853
76 2 0.184735 0.559429 0.780967
199 2 0.184735 0.48019 0.656093
264 2 0.230394 0.434531 0.780967
603 1 0.270014 0.51981 0.71853
27 2 0.355292 0.559429 0.656093
152 2 0.355292 0.48019 0.780967
343 2 0.309633 0.434531 0.656093
92 2 0.434531 0.559429 0.780967
215 2 0.434531 0.48019 0.656093
280 2 0.48019 0.434531 0.780967
359 2 0.559429 0.434531 0.656093
619 1 0.51981 0.51981 0.71853
43 2 0.605088 0.559429 0.656093
108 2 0.684327 0.559429 0.780967
168 2 0.605088 0.48019 0.780967
231 2 0.684327 0.48019 0.656093
59 2 0.854884 0.559429 0.656093
184 2 0.854884 0.48019 0.780967
296 2 0.729986 0.434531 0.780967
375 2 0.809225 0.434531 0.656093
635 1 0.769606 0.51981 0.71853
124 2 0.934123 0.559429 0.780967
247 2 0.934123 0.48019 0.656093
312 2 0.979782 0.434531 0.780967
331 2 0.0598372 0.684327 0.656093
460 2 0.0598372 0.605088 0.780967
268 2 0.230394 0.684327 0.780967
395 2 0.230394 0.605088 0.656093
651 1 0.145116 0.644708 0.71853
347 2 0.309633 0.684327 0.656093
476 2 0.309633 0.605088 0.780967
667 1 0.394912 0.644708 0.71853
284 2 0.48019 0.684327 0.780967
363 2 0.559429 0.684327 0.656093
411 2 0.48019 0.605088 0.656093
492 2 0.559429 0.605088 0.780967
683 1 0.644708 0.644708 0.71853
300 2 0.729986 0.684327 0.780967
379 2 0.809225 0.684327 0.656093
427 2 0.729986 0.605088 0.656093
508 2 0.809225 0.605088 0.780967
316 2 0.979782 0.684327 0.780967
443 2 0.979782 0.605088 0.656093
699 1 0.894504 0.644708 0.71853
15 2 0.105496 0.809225 0.656093
140 2 0.105496 0.729986 0.780967
464 2 0.0598372 0.854884 0.780967
591 1 0.0202178 0.769606 0.71853
80 2 0.184735 0.809225 0.780967
203 2 0.184735 0.729986 0.656093
399 2 0.230394 0.854884 0.656093
607 1 0.270014 0.769606 0.71853
31 2 0.355292 0.809225 0.656093
156 2 0.355292 0.729986 0.780967
480 2 0.309633 0.854884 0.780967
96 2 0.434531 0.809225 0.780967
219 2 0.434531 0.729986 0.656093
415 2 0.48019 0.854884 0.656093
496 2 0.559429 0.854884 0.780967
623 1 0.51981 0.769606 0.71853
47 2 0.605088 0.809225 0.656093
112 2 0.684327 0.809225 0.780967
172 2 0.605088 0.729986 0.780967
235 2 0.684327 0.729986 0.656093
63 2 0.854884 0.809225 0.656093
188 2 0.854884 0.729986 0.780967
431 2 0.729986 0.854884 0.656093
512 2 0.809225 0.854884 0.780967
639 1 0.769606 0.769606 0.71853
128 2 0.934123 0.809225 0.780967
251 2 0.934123 0.729986 0.656093
447 2 0.979782 0.854884 0.656093
144 2 0.105496 0.979782 0.780967
335 2 0.0598372 0.934123 0.656093
207 2 0.184735 0.979782 0.656093
272 2 0.230394 0.934123 0.780967
655 1 0.145116 0.894504 0.71853
160 2 0.355292 0.979782 0.780967
351 2 0.309633 0.934123 0.656093
671 1 0.394912 0.894504 0.71853
223 2 0.434531 0.979782 0.656093
288 2 0.48019 0.934123 0.780967
367 2 0.559429 0.934123 0.656093
176 2 0.605088 0.979782 0.780967
239 2 0.684327 0.979782 0.656093
687 1 0.644708 0.894504 0.71853
192 2 0.854884 0.979782 0.780967
304 2 0.729986 0.934123 0.780967
383 2 0.809225 0.934123 0.656093
255 2 0.934123 0.979782 0.656093
320 2 0.979782 0.934123 0.780967
703 1 0.894504 0.894504 0.71853
4 2 0.105496 0.0598372 0.905842
516 1 0.0202178 0.0202178 0.843405
580 1 0.0202178 0.0202178 0.968279
388 2 0.230394 0.105496 0.905842
532 1 0.270014 0.0202178 0.843405
596 1 0.270014 0.0202178 0.968279
20 2 0.355292 0.0598372 0.905842
404 2 0.48019 0.105496 0.905842
548 1 0.51981 0.0202178 0.843405
612 1 0.51981 0.0202178 0.968279
36 2 0.605088 0.0598372 0.905842
52 2 0.854884 0.0598372 0.905842
420 2 0.729986 0.105496 0.905842
564 1 0.769606 0.0202178 0.843405
628 1 0.769606 0.0202178 0.968279
436 2 0.979782 0.105496 0.905842
324 2 0.0598372 0.184735 0.905842
520 1 0.0202178 0.270014 0.843405
584 1 0.0202178 0.270014 0.968279
196 2 0.184735 0.230394 0.905842
536 1 0.270014 0.270014 0.843405
600 1 0.270014 0.270014 0.968279
644 1 0.145116 0.145116 0.968279
708 1 0.145116 0.145116 0.843405
340 2 0.309633 0.184735 0.905842
660 1 0.394912 0.145116 0.968279
724 1 0.394912 0.145116 0.843405
212 2 0.434531 0.230394 0.905842
356 2 0.559429 0.184735 0.905842
552 1 0.51981 0.270014 0.843405
616 1 0.51981 0.270014 0.968279
228 2 0.684327 0.230394 0.905842
676 1 0.644708 0.145116 0.968279
740 1 0.644708 0.145116 0.843405
372 2 0.809225 0.184735 0.905842
568 1 0.769606 0.270014 0.843405
632 1 0.769606 0.270014 0.968279
244 2 0.934123 0.230394 0.905842
692 1 0.894504 0.145116 0.968279
756 1 0.894504 0.145116 0.843405
8 2 0.105496 0.309633 0.905842
392 2 0.230394 0.355292 0.905842
648 1 0.145116 0.394912 0.968279
712 1 0.145116 0.394912 0.843405
24 2 0.355292 0.309633 0.905842
664 1 0.394912 0.394912 0.968279
728 1 0.394912 0.394912 0.843405
408 2 0.48019 0.355292 0.905842
40 2 0.605088 0.309633 0.905842
680 1 0.644708 0.394912 0.968279
744 1 0.644708 0.394912 0.843405
56 2 0.854884 0.309633 0.905842
424 2 0.729986 0.355292 0.905842
440 2 0.979782 0.355292 0.905842
696 1 0.894504 0.394912 0.968279
760 1 0.894504 0.394912 0.843405
12 2 0.105496 0.559429 0.905842
328 2 0.0598372 0.434531 0.905842
524 1 0.0202178 0.51981 0.843405
588 1 0.0202178 0.51981 0.968279
200 2 0.184735 0.48019 0.905842
540 1 0.270014 0.51981 0.843405
604 1 0.270014 0.51981 0.968279
28 2 0.355292 0.559429 0.905842
344 2 0.309633 0.434531 0.905842
216 2 0.434531 0.48019 0.905842
360 2 0.559429 0.434531 0.905842
556 1 0.51981 0.51981 0.843405
620 1 0.51981 0.51981 0.968279
44 2 0.605088 0.559429 0.905842
232 2 0.684327 0.48019 0.905842
60 2 0.854884 0.559429 0.905842
376 2 0.809225 0.434531 0.905842
572 1 0.769606 0.51981 0.843405
636 1 0.769606 0.51981 0.968279
248 2 0.934123 0.48019 0.905842
332 2 0.0598372 0.684327 0.905842
396 2 0.230394 0.605088 0.905842
652 1 0.145116 0.644708 0.968279
716 1 0.145116 0.644708 0.843405
348 2 0.309633 0.684327 0.905842
668 1 0.394912 0.644708 0.968279
732 1 0.394912 0.644708 0.843405
364 2 0.559429 0.684327 0.905842
412 2 0.48019 0.605088 0.905842
684 1 0.644708 0.644708 0.968279
748 1 0.644708 0.644708 0.843405
380 2 0.809225 0.684327 0.905842
428 2 0.729986 0.605088 0.905842
444 2 0.979782 0.605088 0.905842
700 1 0.894504 0.644708 0.968279
764 1 0.894504 0.644708 0.843405
16 2 0.105496 0.809225 0.905842
528 1 0.0202178 0.769606 0.843405
592 1 0.0202178 0.769606 0.968279
204 2 0.184735 0.729986 0.905842
400 2 0.230394 0.854884 0.905842
544 1 0.270014 0.769606 0.843405
608 1 0.270014 0.769606 0.968279
32 2 0.355292 0.809225 0.905842
220 2 0.434531 0.729986 0.905842
416 2 0.48019 0.854884 0.905842
560 1 0.51981 0.769606 0.843405
624 1 0.51981 0.769606 0.968279
48 2 0.605088 0.809225 0.905842
236 2 0.684327 0.729986 0.905842
64 2 0.854884 0.809225 0.905842
432 2 0.729986 0.854884 0.905842
576 1 0.769606 0.769606 0.843405
640 1 0.769606 0.769606 0.968279
252 2 0.934123 0.729986 0.905842
448 2 0.979782 0.854884 0.905842
336 2 0.0598372 0.934123 0.905842
208 2 0.184735 0.979782 0.905842
656 1 0.145116 0.894504 0.968279
720 1 0.145116 0.894504 0.843405
352 2 0.309633 0.934123 0.905842
672 1 0.394912 0.894504 0.968279
736 1 0.394912 0.894504 0.843405
224 2 0.434531 0.979782 0.905842
368 2 0.559429 0.934123 0.905842
240 2 0.684327 0.979782 0.905842
688 1 0.644708 0.894504 0.968279
752 1 0.644708 0.894504 0.843405
384 2 0.809225 0.934123 0.905842
256 2 0.934123 0.979782 0.905842
704 1 0.894504 0.894504 0.968279
768 1 0.894504 0.894504 0.843405
ITEM: TIMESTEP
25
ITEM: NUMBER OF ATOMS
768
ITEM: BOX BOUNDS pp pp pp
-4.9533700000000003e-01 2.4004663000000001e+01
-4.9533700000000003e-01 2.4004663000000001e+01
-6.3124999999999998e-01 1.9268750000000001e+01
ITEM: ATOMS id type xs ys zs
1 2 0.103914 0.0607397 0.15626
449 2 0.0607397 0.103914 0.0312605
513 1 0.0198267 0.0198267 0.0937605
65 2 0.18574 0.0607397 0.0312605
385 2 0.228914 0.103914 0.15626
529 1 0.269827 0.0198267 0.0937605
17 2 0.353914 0.0607397 0.15626
465 2 0.31074 0.103914 0.0312605
81 2 0.43574 0.0607397 0.0312605
401 2 0.478914 0.103914 0.15626
481 2 0.56074 0.103914 0.0312605
545 1 0.519827 0.0198267 0.0937605
33 2 0.603914 0.0607397 0.15626
97 2 0.68574 0.0607397 0.0312605
49 2 0.853914 0.0607397 0.15626
417 2 0.728914 0.103914 0.15626
497 2 0.81074 0.103914 0.0312605
561 1 0.769827 0.0198267 0.0937605
113 2 0.93574 0.0607397 0.0312605
433 2 0.978914 0.103914 0.15626
129 2 0.103914 0.228914 0.0312605
321 2 0.0607397 0.18574 0.15626
517 1 0.0198267 0.269827 0.0937605
193 2 0.18574 0.228914 0.15626
257 2 0.228914 0.18574 0.0312605
533 1 0.269827 0.269827 0.0937605
705 1 0.144827 0.144827 0.0937605
145 2 0.353914 0.228914 0.0312605
337 2 0.31074 0.18574 0.15626
721 1 0.394827 0.144827 0.0937605
209 2 0.43574 0.228914 0.15626
273 2 0.478914 0.18574 0.0312605
353 2 0.56074 0.18574 0.15626
549 1 0.519827 0.269827 0.0937605
161 2 0.603914 0.228914 0.0312605
225 2 0.68574 0.228914 0.15626
737 1 0.644827 0.144827 0.0937605
177 2 0.853914 0.228914 0.0312605
289 2 0.728914 0.18574 0.0312605
369 2 0.81074 0.18574 0.15626
565 1 0.769827 0.269827 0.0937605
241 2 0.93574 0.228914 0.15626
305 2 0.978914 0.18574 0.0312605
753 1 0.894827 0.144827 0.0937605
5 2 0.103914 0.31074 0.15626
453 2 0.0607397 0.353914 0.0312605
69 2 0.18574 0.31074 0.0312605
389 2 0.228914 0.353914 0.15626
709 1 0.144827 0.394827 0.0937605
21 2 0.353914 0.31074 0.15626
469 2 0.31074 0.353914 0.0312605
725 1 0.394827 0.394827 0.0937605
85 2 0.43574 0.31074 0.0312605
405 2 0.478914 0.353914 0.15626
485 2 0.56074 0.353914 0.0312605
37 2 0.603914 0.31074 0.15626
101 2 0.68574 0.31074 0.0312605
741 1 0.644827 0.394827 0.0937605
53 2 0.853914 0.31074 0.15626
421 2 0.728914 0.353914 0.15626
501 2 0.81074 0.353914 0.0312605
117 2 0.93574 0.31074 0.0312605
437 2 0.978914 0.353914 0.15626
757 1 0.894827 0.394827 0.0937605
9 2 0.103914 0.56074 0.15626
133 2 0.103914 0.478914 0.0312605
325 2 0.0607397 0.43574 0.15626
521 1 0.0198267 0.519827 0.0937605
73 2 0.18574 0.56074 0.0312605
197 2 0.18574 0.478914 0.15626
261 2 0.228914 0.43574 0.0312605
537 1 0.269827 0.519827 0.0937605
25 2 0.353914 0.56074 0.15626
149 2 0.353914 0.478914 0.0312605
341 2 0.31074 0.43574 0.15626
89 2 0.43574 0.56074 0.0312605
213 2 0.43574 0.478914 0.15626
277 2 0.478914 0.43574 0.0312605
357 2 0.56074 0.43574 0.15626
553 1 0.519827 0.519827 0.0937605
41 2 0.603914 0.56074 0.15626
105 2 0.68574 0.56074 0.0312605
165 2 0.603914 0.478914 0.0312605
229 2 0.68574 0.478914 0.15626
57 2 0.853914 0.56074 0.15626
181 2 0.853914 0.478914 0.0312605
293 2 0.728914 0.43574 0.0312605
373 2 0.81074 0.43574 0.15626
569 1 0.769827 0.519827 0.0937605
121 2 0.93574 0.56074 0.0312605
245 2 0.93574 0.478914 0.15626
309 2 0.978914 0.43574 0.0312605
329 2 0.0607397 0.68574 0.15626
457 2 0.0607397 0.603914 0.0312605
265 2 0.228914 0.68574 0.0312605
393 2 0.228914 0.603914 0.15626
713 1 0.144827 0.644827 0.0937605
345 2 0.31074 0.68574 0.15626
473 2 0.31074 0.603914 0.0312605
729 1 0.394827 0.644827 0.0937605
281 2 0.478914 0.68574 0.0312605
361 2 0.56074 0.68574 0.15626
409 2 0.478914 0.603914 0.15626
489 2 0.56074 0.603914 0.0312605
745 1 0.644827 0.644827 0.0937605
297 2 0.728914 0.68574 0.0312605
377 2 0.81074 0.68574 0.15626
425 2 0.728914 0.603914 0.15626
505 2 0.81074 0.603914 0.0312605
313 2 0.978914 0.68574 0.0312605
441 2 0.978914 0.603914 0.15626
761 1 0.894827 0.644827 0.0937605
13 2 0.103914 0.81074 0.15626
137 2 0.103914 0.728914 0.0312605
461 2 0.0607397 0.853914 0.0312605
525 1 0.0198267 0.769827 0.0937605
77 2 0.18574 0.81074 0.0312605
201 2 0.18574 0.728914 0.15626
397 2 0.228914 0.853914 0.15626
541 1 0.269827 0.769827 0.0937605
29 2 0.353914 0.81074 0.15626
153 2 0.353914 0.728914 0.0312605
477 2 0.31074 0.853914 0.0312605
93 2 0.43574 0.81074 0.0312605
217 2 0.43574 0.728914 0.15626
413 2 0.478914 0.853914 0.15626
493 2 0.56074 0.853914 0.0312605
557 1 0.519827 0.769827 0.0937605
45 2 0.603914 0.81074 0.15626
109 2 0.68574 0.81074 0.0312605
169 2 0.603914 0.728914 0.0312605