ITEM: TIMESTEP
0
ITEM: NUMBER OF ATOMS
768
ITEM: BOX BOUNDS pp pp pp
-4.9533700000000003e-01 2.4004663000000001e+01
-4.9533700000000003e-01 2.4004663000000001e+01
-6.3124999999999998e-01 1.9268750000000001e+01
ITEM: ATOMS id type xs ys zs
1 2 0.103914 0.0607397 0.15626
449 2 0.0607397 0.103914 0.0312605
513 1 0.0198267 0.0198267 0.0937605
65 2 0.18574 0.0607397 0.0312605
385 2 0.228914 0.103914 0.15626
529 1 0.269827 0.0198267 0.0937605
17 2 0.353914 0.0607397 0.15626
465 2 0.31074 0.103914 0.0312605
81 2 0.43574 0.0607397 0.0312605
401 2 0.478914 0.103914 0.15626
481 2 0.56074 0.103914 0.0312605
545 1 0.519827 0.0198267 0.0937605
33 2 0.603914 0.0607397 0.15626
97 2 0.68574 0.0607397 0.0312605
49 2 0.853914 0.0607397 0.15626
417 2 0.728914 0.103914 0.15626
497 2 0.81074 0.103914 0.0312605
561 1 0.769827 0.0198267 0.0937605
113 2 0.93574 0.0607397 0.0312605
433 2 0.978914 0.103914 0.15626
129 2 0.103914 0.228914 0.0312605
321 2 0.0607397 0.18574 0.15626
517 1 0.0198267 0.269827 0.0937605
193 2 0.18574 0.228914 0.15626
257 2 0.228914 0.18574 0.0312605
533 1 0.269827 0.269827 0.0937605
705 1 0.144827 0.144827 0.0937605
145 2 0.353914 0.228914 0.0312605
337 2 0.31074 0.18574 0.15626
721 1 0.394827 0.144827 0.0937605
209 2 0.43574 0.228914 0.15626
273 2 0.478914 0.18574 0.0312605
353 2 0.56074 0.18574 0.15626
549 1 0.519827 0.269827 0.0937605
161 2 0.603914 0.228914 0.0312605
225 2 0.68574 0.228914 0.15626
737 1 0.644827 0.144827 0.0937605
177 2 0.853914 0.228914 0.0312605
289 2 0.728914 0.18574 0.0312605
369 2 0.81074 0.18574 0.15626
565 1 0.769827 0.269827 0.0937605
241 2 0.93574 0.228914 0.15626
305 2 0.978914 0.18574 0.0312605
753 1 0.894827 0.144827 0.0937605
5 2 0.103914 0.31074 0.15626
453 2 0.0607397 0.353914 0.0312605
69 2 0.18574 0.31074 0.0312605
389 2 0.228914 0.353914 0.15626
709 1 0.144827 0.394827 0.0937605
21 2 0.353914 0.31074 0.15626
469 2 0.31074 0.353914 0.0312605
725 1 0.394827 0.394827 0.0937605
85 2 0.43574 0.31074 0.0312605
405 2 0.478914 0.353914 0.15626
485 2 0.56074 0.353914 0.0312605
37 2 0.603914 0.31074 0.15626
101 2 0.68574 0.31074 0.0312605
741 1 0.644827 0.394827 0.0937605
53 2 0.853914 0.31074 0.15626
421 2 0.728914 0.353914 0.15626
501 2 0.81074 0.353914 0.0312605
117 2 0.93574 0.31074 0.0312605
437 2 0.978914 0.353914 0.15626
757 1 0.894827 0.394827 0.0937605
9 2 0.103914 0.56074 0.15626
133 2 0.103914 0.478914 0.0312605
325 2 0.0607397 0.43574 0.15626
521 1 0.0198267 0.519827 0.0937605
73 2 0.18574 0.56074 0.0312605
197 2 0.18574 0.478914 0.15626
261 2 0.228914 0.43574 0.0312605
537 1 0.269827 0.519827 0.0937605
25 2 0.353914 0.56074 0.15626
149 2 0.353914 0.478914 0.0312605
341 2 0.31074 0.43574 0.15626
89 2 0.43574 0.56074 0.0312605
213 2 0.43574 0.478914 0.15626
277 2 0.478914 0.43574 0.0312605
357 2 0.56074 0.43574 0.15626
553 1 0.519827 0.519827 0.0937605
41 2 0.603914 0.56074 0.15626
105 2 0.68574 0.56074 0.0312605
165 2 0.603914 0.478914 0.0312605
229 2 0.68574 0.478914 0.15626
57 2 0.853914 0.56074 0.15626
181 2 0.853914 0.478914 0.0312605
293 2 0.728914 0.43574 0.0312605
373 2 0.81074 0.43574 0.15626
569 1 0.769827 0.519827 0.0937605
121 2 0.93574 0.56074 0.0312605
245 2 0.93574 0.478914 0.15626
309 2 0.978914 0.43574 0.0312605
329 2 0.0607397 0.68574 0.15626
457 2 0.0607397 0.603914 0.0312605
265 2 0.228914 0.68574 0.0312605
393 2 0.228914 0.603914 0.15626
713 1 0.144827 0.644827 0.0937605
345 2 0.31074 0.68574 0.15626
473 2 0.31074 0.603914 0.0312605
729 1 0.394827 0.644827 0.0937605
281 2 0.478914 0.68574 0.0312605
361 2 0.56074 0.68574 0.15626
409 2 0.478914 0.603914 0.15626
489 2 0.56074 0.603914 0.0312605
745 1 0.644827 0.644827 0.0937605
297 2 0.728914 0.68574 0.0312605
377 2 0.81074 0.68574 0.15626
425 2 0.728914 0.603914 0.15626
505 2 0.81074 0.603914 0.0312605
313 2 0.978914 0.68574 0.0312605
441 2 0.978914 0.603914 0.15626
761 1 0.894827 0.644827 0.0937605
13 2 0.103914 0.81074 0.15626
137 2 0.103914 0.728914 0.0312605
461 2 0.0607397 0.853914 0.0312605
525 1 0.0198267 0.769827 0.0937605
77 2 0.18574 0.81074 0.0312605
201 2 0.18574 0.728914 0.15626
397 2 0.228914 0.853914 0.15626
541 1 0.269827 0.769827 0.0937605
29 2 0.353914 0.81074 0.15626
153 2 0.353914 0.728914 0.0312605
477 2 0.31074 0.853914 0.0312605
93 2 0.43574 0.81074 0.0312605
217 2 0.43574 0.728914 0.15626
413 2 0.478914 0.853914 0.15626
493 2 0.56074 0.853914 0.0312605
557 1 0.519827 0.769827 0.0937605
45 2 0.603914 0.81074 0.15626
109 2 0.68574 0.81074 0.0312605
169 2 0.603914 0.728914 0.0312605
233 2 0.68574 0.728914 0.15626
61 2 0.853914 0.81074 0.15626
185 2 0.853914 0.728914 0.0312605
429 2 0.728914 0.853914 0.15626
509 2 0.81074 0.853914 0.0312605
573 1 0.769827 0.769827 0.0937605
125 2 0.93574 0.81074 0.0312605
249 2 0.93574 0.728914 0.15626
445 2 0.978914 0.853914 0.15626
141 2 0.103914 0.978914 0.0312605
333 2 0.0607397 0.93574 0.15626
205 2 0.18574 0.978914 0.15626
269 2 0.228914 0.93574 0.0312605
717 1 0.144827 0.894827 0.0937605
157 2 0.353914 0.978914 0.0312605
349 2 0.31074 0.93574 0.15626
733 1 0.394827 0.894827 0.0937605
221 2 0.43574 0.978914 0.15626
285 2 0.478914 0.93574 0.0312605
365 2 0.56074 0.93574 0.15626
173 2 0.603914 0.978914 0.0312605
237 2 0.68574 0.978914 0.15626
749 1 0.644827 0.894827 0.0937605
189 2 0.853914 0.978914 0.0312605
301 2 0.728914 0.93574 0.0312605
381 2 0.81074 0.93574 0.15626
253 2 0.93574 0.978914 0.15626
317 2 0.978914 0.93574 0.0312605
765 1 0.894827 0.894827 0.0937605
450 2 0.0607397 0.103914 0.28126
514 1 0.0198267 0.0198267 0.34376
577 1 0.0198267 0.0198267 0.21876
66 2 0.18574 0.0607397 0.28126
530 1 0.269827 0.0198267 0.34376
593 1 0.269827 0.0198267 0.21876
466 2 0.31074 0.103914 0.28126
82 2 0.43574 0.0607397 0.28126
482 2 0.56074 0.103914 0.28126
546 1 0.519827 0.0198267 0.34376
609 1 0.519827 0.0198267 0.21876
98 2 0.68574 0.0607397 0.28126
498 2 0.81074 0.103914 0.28126
562 1 0.769827 0.0198267 0.34376
625 1 0.769827 0.0198267 0.21876
114 2 0.93574 0.0607397 0.28126
130 2 0.103914 0.228914 0.28126
518 1 0.0198267 0.269827 0.34376
581 1 0.0198267 0.269827 0.21876
258 2 0.228914 0.18574 0.28126
534 1 0.269827 0.269827 0.34376
597 1 0.269827 0.269827 0.21876
641 1 0.144827 0.144827 0.21876
706 1 0.144827 0.144827 0.34376
146 2 0.353914 0.228914 0.28126
657 1 0.394827 0.144827 0.21876
722 1 0.394827 0.144827 0.34376
274 2 0.478914 0.18574 0.28126
550 1 0.519827 0.269827 0.34376
613 1 0.519827 0.269827 0.21876
162 2 0.603914 0.228914 0.28126
673 1 0.644827 0.144827 0.21876
738 1 0.644827 0.144827 0.34376
178 2 0.853914 0.228914 0.28126
290 2 0.728914 0.18574 0.28126
566 1 0.769827 0.269827 0.34376
629 1 0.769827 0.269827 0.21876
306 2 0.978914 0.18574 0.28126
689 1 0.894827 0.144827 0.21876
754 1 0.894827 0.144827 0.34376
454 2 0.0607397 0.353914 0.28126
70 2 0.18574 0.31074 0.28126
645 1 0.144827 0.394827 0.21876
710 1 0.144827 0.394827 0.34376
470 2 0.31074 0.353914 0.28126
661 1 0.394827 0.394827 0.21876
726 1 0.394827 0.394827 0.34376
86 2 0.43574 0.31074 0.28126
486 2 0.56074 0.353914 0.28126
102 2 0.68574 0.31074 0.28126
677 1 0.644827 0.394827 0.21876
742 1 0.644827 0.394827 0.34376
502 2 0.81074 0.353914 0.28126
118 2 0.93574 0.31074 0.28126
693 1 0.894827 0.394827 0.21876
758 1 0.894827 0.394827 0.34376
134 2 0.103914 0.478914 0.28126
522 1 0.0198267 0.519827 0.34376
585 1 0.0198267 0.519827 0.21876
74 2 0.18574 0.56074 0.28126
262 2 0.228914 0.43574 0.28126
538 1 0.269827 0.519827 0.34376
601 1 0.269827 0.519827 0.21876
150 2 0.353914 0.478914 0.28126
90 2 0.43574 0.56074 0.28126
278 2 0.478914 0.43574 0.28126
554 1 0.519827 0.519827 0.34376
617 1 0.519827 0.519827 0.21876
106 2 0.68574 0.56074 0.28126
166 2 0.603914 0.478914 0.28126
182 2 0.853914 0.478914 0.28126
294 2 0.728914 0.43574 0.28126
570 1 0.769827 0.519827 0.34376
633 1 0.769827 0.519827 0.21876
122 2 0.93574 0.56074 0.28126
310 2 0.978914 0.43574 0.28126
458 2 0.0607397 0.603914 0.28126
266 2 0.228914 0.68574 0.28126
649 1 0.144827 0.644827 0.21876
714 1 0.144827 0.644827 0.34376
474 2 0.31074 0.603914 0.28126
665 1 0.394827 0.644827 0.21876
730 1 0.394827 0.644827 0.34376
282 2 0.478914 0.68574 0.28126
490 2 0.56074 0.603914 0.28126
681 1 0.644827 0.644827 0.21876
746 1 0.644827 0.644827 0.34376
298 2 0.728914 0.68574 0.28126
506 2 0.81074 0.603914 0.28126
314 2 0.978914 0.68574 0.28126
697 1 0.894827 0.644827 0.21876
762 1 0.894827 0.644827 0.34376
138 2 0.103914 0.728914 0.28126
462 2 0.0607397 0.853914 0.28126
526 1 0.0198267 0.769827 0.34376
589 1 0.0198267 0.769827 0.21876
78 2 0.18574 0.81074 0.28126
542 1 0.269827 0.769827 0.34376
605 1 0.269827 0.769827 0.21876
154 2 0.353914 0.728914 0.28126
478 2 0.31074 0.853914 0.28126
94 2 0.43574 0.81074 0.28126
494 2 0.56074 0.853914 0.28126
558 1 0.519827 0.769827 0.34376
621 1 0.519827 0.769827 0.21876
110 2 0.68574 0.81074 0.28126
170 2 0.603914 0.728914 0.28126
186 2 0.853914 0.728914 0.28126
510 2 0.81074 0.853914 0.28126
574 1 0.769827 0.769827 0.34376
637 1 0.769827 0.769827 0.21876
126 2 0.93574 0.81074 0.28126
142 2 0.103914 0.978914 0.28126
270 2 0.228914 0.93574 0.28126
653 1 0.144827 0.894827 0.21876
718 1 0.144827 0.894827 0.34376
158 2 0.353914 0.978914 0.28126
669 1 0.394827 0.894827 0.21876
734 1 0.394827 0.894827 0.34376
286 2 0.478914 0.93574 0.28126
174 2 0.603914 0.978914 0.28126
685 1 0.644827 0.894827 0.21876
750 1 0.644827 0.894827 0.34376
190 2 0.853914 0.978914 0.28126
302 2 0.728914 0.93574 0.28126
318 2 0.978914 0.93574 0.28126
701 1 0.894827 0.894827 0.21876
766 1 0.894827 0.894827 0.34376
2 2 0.103914 0.0607397 0.40626
451 2 0.0607397 0.103914 0.53126
515 1 0.0198267 0.0198267 0.59376
578 1 0.0198267 0.0198267 0.46876
67 2 0.18574 0.0607397 0.53126
386 2 0.228914 0.103914 0.40626
531 1 0.269827 0.0198267 0.59376
594 1 0.269827 0.0198267 0.46876
18 2 0.353914 0.0607397 0.40626
467 2 0.31074 0.103914 0.53126
83 2 0.43574 0.0607397 0.53126
402 2 0.478914 0.103914 0.40626
483 2 0.56074 0.103914 0.53126
547 1 0.519827 0.0198267 0.59376
610 1 0.519827 0.0198267 0.46876
34 2 0.603914 0.0607397 0.40626
99 2 0.68574 0.0607397 0.53126
50 2 0.853914 0.0607397 0.40626
418 2 0.728914 0.103914 0.40626
499 2 0.81074 0.103914 0.53126
563 1 0.769827 0.0198267 0.59376
626 1 0.769827 0.0198267 0.46876
115 2 0.93574 0.0607397 0.53126
434 2 0.978914 0.103914 0.40626
131 2 0.103914 0.228914 0.53126
322 2 0.0607397 0.18574 0.40626
519 1 0.0198267 0.269827 0.59376
582 1 0.0198267 0.269827 0.46876
194 2 0.18574 0.228914 0.40626
259 2 0.228914 0.18574 0.53126
535 1 0.269827 0.269827 0.59376
598 1 0.269827 0.269827 0.46876
642 1 0.144827 0.144827 0.46876
707 1 0.144827 0.144827 0.59376
147 2 0.353914 0.228914 0.53126
338 2 0.31074 0.18574 0.40626
658 1 0.394827 0.144827 0.46876
723 1 0.394827 0.144827 0.59376
210 2 0.43574 0.228914 0.40626
275 2 0.478914 0.18574 0.53126
354 2 0.56074 0.18574 0.40626
551 1 0.519827 0.269827 0.59376
614 1 0.519827 0.269827 0.46876
163 2 0.603914 0.228914 0.53126
226 2 0.68574 0.228914 0.40626
674 1 0.644827 0.144827 0.46876
739 1 0.644827 0.144827 0.59376
179 2 0.853914 0.228914 0.53126
291 2 0.728914 0.18574 0.53126
370 2 0.81074 0.18574 0.40626
567 1 0.769827 0.269827 0.59376
630 1 0.769827 0.269827 0.46876
242 2 0.93574 0.228914 0.40626
307 2 0.978914 0.18574 0.53126
690 1 0.894827 0.144827 0.46876
755 1 0.894827 0.144827 0.59376
6 2 0.103914 0.31074 0.40626
455 2 0.0607397 0.353914 0.53126
71 2 0.18574 0.31074 0.53126
390 2 0.228914 0.353914 0.40626
646 1 0.144827 0.394827 0.46876
711 1 0.144827 0.394827 0.59376
22 2 0.353914 0.31074 0.40626
471 2 0.31074 0.353914 0.53126
662 1 0.394827 0.394827 0.46876
727 1 0.394827 0.394827 0.59376
87 2 0.43574 0.31074 0.53126
406 2 0.478914 0.353914 0.40626
487 2 0.56074 0.353914 0.53126
38 2 0.603914 0.31074 0.40626
103 2 0.68574 0.31074 0.53126
678 1 0.644827 0.394827 0.46876
743 1 0.644827 0.394827 0.59376
54 2 0.853914 0.31074 0.40626
422 2 0.728914 0.353914 0.40626
503 2 0.81074 0.353914 0.53126
119 2 0.93574 0.31074 0.53126
438 2 0.978914 0.353914 0.40626
694 1 0.894827 0.394827 0.46876
759 1 0.894827 0.394827 0.59376
10 2 0.103914 0.56074 0.40626
135 2 0.103914 0.478914 0.53126
326 2 0.0607397 0.43574 0.40626
523 1 0.0198267 0.519827 0.59376
586 1 0.0198267 0.519827 0.46876
75 2 0.18574 0.56074 0.53126
198 2 0.18574 0.478914 0.40626
263 2 0.228914 0.43574 0.53126
539 1 0.269827 0.519827 0.59376
602 1 0.269827 0.519827 0.46876
26 2 0.353914 0.56074 0.40626
151 2 0.353914 0.478914 0.53126
342 2 0.31074 0.43574 0.40626
91 2 0.43574 0.56074 0.53126
214 2 0.43574 0.478914 0.40626
279 2 0.478914 0.43574 0.53126
358 2 0.56074 0.43574 0.40626
555 1 0.519827 0.519827 0.59376
618 1 0.519827 0.519827 0.46876
42 2 0.603914 0.56074 0.40626
107 2 0.68574 0.56074 0.53126
167 2 0.603914 0.478914 0.53126
230 2 0.68574 0.478914 0.40626
58 2 0.853914 0.56074 0.40626
183 2 0.853914 0.478914 0.53126
295 2 0.728914 0.43574 0.53126
374 2 0.81074 0.43574 0.40626
571 1 0.769827 0.519827 0.59376
634 1 0.769827 0.519827 0.46876
123 2 0.93574 0.56074 0.53126
246 2 0.93574 0.478914 0.40626
311 2 0.978914 0.43574 0.53126
330 2 0.0607397 0.68574 0.40626
459 2 0.0607397 0.603914 0.53126
267 2 0.228914 0.68574 0.53126
394 2 0.228914 0.603914 0.40626
650 1 0.144827 0.644827 0.46876
715 1 0.144827 0.644827 0.59376
346 2 0.31074 0.68574 0.40626
475 2 0.31074 0.603914 0.53126
666 1 0.394827 0.644827 0.46876
731 1 0.394827 0.644827 0.59376
283 2 0.478914 0.68574 0.53126
362 2 0.56074 0.68574 0.40626
410 2 0.478914 0.603914 0.40626
491 2 0.56074 0.603914 0.53126
682 1 0.644827 0.644827 0.46876
747 1 0.644827 0.644827 0.59376
299 2 0.728914 0.68574 0.53126
378 2 0.81074 0.68574 0.40626
426 2 0.728914 0.603914 0.40626
507 2 0.81074 0.603914 0.53126
315 2 0.978914 0.68574 0.53126
442 2 0.978914 0.603914 0.40626
698 1 0.894827 0.644827 0.46876
763 1 0.894827 0.644827 0.59376
14 2 0.103914 0.81074 0.40626
139 2 0.103914 0.728914 0.53126
463 2 0.0607397 0.853914 0.53126
527 1 0.0198267 0.769827 0.59376
590 1 0.0198267 0.769827 0.46876
79 2 0.18574 0.81074 0.53126
202 2 0.18574 0.728914 0.40626
398 2 0.228914 0.853914 0.40626
543 1 0.269827 0.769827 0.59376
606 1 0.269827 0.769827 0.46876
30 2 0.353914 0.81074 0.40626
155 2 0.353914 0.728914 0.53126
479 2 0.31074 0.853914 0.53126
95 2 0.43574 0.81074 0.53126
218 2 0.43574 0.728914 0.40626
414 2 0.478914 0.853914 0.40626
495 2 0.56074 0.853914 0.53126
559 1 0.519827 0.769827 0.59376
622 1 0.519827 0.769827 0.46876
46 2 0.603914 0.81074 0.40626
111 2 0.68574 0.81074 0.53126
171 2 0.603914 0.728914 0.53126
234 2 0.68574 0.728914 0.40626
62 2 0.853914 0.81074 0.40626
187 2 0.853914 0.728914 0.53126
430 2 0.728914 0.853914 0.40626
511 2 0.81074 0.853914 0.53126
575 1 0.769827 0.769827 0.59376
638 1 0.769827 0.769827 0.46876
127 2 0.93574 0.81074 0.53126
250 2 0.93574 0.728914 0.40626
446 2 0.978914 0.853914 0.40626
143 2 0.103914 0.978914 0.53126
334 2 0.0607397 0.93574 0.40626
206 2 0.18574 0.978914 0.40626
271 2 0.228914 0.93574 0.53126
654 1 0.144827 0.894827 0.46876
719 1 0.144827 0.894827 0.59376
159 2 0.353914 0.978914 0.53126
350 2 0.31074 0.93574 0.40626
670 1 0.394827 0.894827 0.46876
735 1 0.394827 0.894827 0.59376
222 2 0.43574 0.978914 0.40626
287 2 0.478914 0.93574 0.53126
366 2 0.56074 0.93574 0.40626
175 2 0.603914 0.978914 0.53126
238 2 0.68574 0.978914 0.40626
686 1 0.644827 0.894827 0.46876
751 1 0.644827 0.894827 0.59376
191 2 0.853914 0.978914 0.53126
303 2 0.728914 0.93574 0.53126
382 2 0.81074 0.93574 0.40626
254 2 0.93574 0.978914 0.40626
319 2 0.978914 0.93574 0.53126
702 1 0.894827 0.894827 0.46876
767 1 0.894827 0.894827 0.59376
3 2 0.103914 0.0607397 0.65626
452 2 0.0607397 0.103914 0.78126
579 1 0.0198267 0.0198267 0.71876
68 2 0.18574 0.0607397 0.78126
387 2 0.228914 0.103914 0.65626
595 1 0.269827 0.0198267 0.71876
19 2 0.353914 0.0607397 0.65626
468 2 0.31074 0.103914 0.78126
84 2 0.43574 0.0607397 0.78126
403 2 0.478914 0.103914 0.65626
484 2 0.56074 0.103914 0.78126
611 1 0.519827 0.0198267 0.71876
35 2 0.603914 0.0607397 0.65626
100 2 0.68574 0.0607397 0.78126
51 2 0.853914 0.0607397 0.65626
419 2 0.728914 0.103914 0.65626
500 2 0.81074 0.103914 0.78126
627 1 0.769827 0.0198267 0.71876
116 2 0.93574 0.0607397 0.78126
435 2 0.978914 0.103914 0.65626
132 2 0.103914 0.228914 0.78126
323 2 0.0607397 0.18574 0.65626
583 1 0.0198267 0.269827 0.71876
195 2 0.18574 0.228914 0.65626
260 2 0.228914 0.18574 0.78126
599 1 0.269827 0.269827 0.71876
643 1 0.144827 0.144827 0.71876
148 2 0.353914 0.228914 0.78126
339 2 0.31074 0.18574 0.65626
659 1 0.394827 0.144827 0.71876
211 2 0.43574 0.228914 0.65626
276 2 0.478914 0.18574 0.78126
355 2 0.56074 0.18574 0.65626
615 1 0.519827 0.269827 0.71876
164 2 0.603914 0.228914 0.78126
227 2 0.68574 0.228914 0.65626
675 1 0.644827 0.144827 0.71876
180 2 0.853914 0.228914 0.78126
292 2 0.728914 0.18574 0.78126
371 2 0.81074 0.18574 0.65626
631 1 0.769827 0.269827 0.71876
243 2 0.93574 0.228914 0.65626
308 2 0.978914 0.18574 0.78126
691 1 0.894827 0.144827 0.71876
7 2 0.103914 0.31074 0.65626
456 2 0.0607397 0.353914 0.78126
72 2 0.18574 0.31074 0.78126
391 2 0.228914 0.353914 0.65626
647 1 0.144827 0.394827 0.71876
23 2 0.353914 0.31074 0.65626
472 2 0.31074 0.353914 0.78126
663 1 0.394827 0.394827 0.71876
88 2 0.43574 0.31074 0.78126
407 2 0.478914 0.353914 0.65626
488 2 0.56074 0.353914 0.78126
39 2 0.603914 0.31074 0.65626
104 2 0.68574 0.31074 0.78126
679 1 0.644827 0.394827 0.71876
55 2 0.853914 0.31074 0.65626
423 2 0.728914 0.353914 0.65626
504 2 0.81074 0.353914 0.78126
120 2 0.93574 0.31074 0.78126
439 2 0.978914 0.353914 0.65626
695 1 0.894827 0.394827 0.71876
11 2 0.103914 0.56074 0.65626
136 2 0.103914 0.478914 0.78126
327 2 0.0607397 0.43574 0.65626
587 1 0.0198267 0.519827 0.71876
76 2 0.18574 0.56074 0.78126
199 2 0.18574 0.478914 0.65626
264 2 0.228914 0.43574 0.78126
603 1 0.269827 0.519827 0.71876
27 2 0.353914 0.56074 0.65626
152 2 0.353914 0.478914 0.78126
343 2 0.31074 0.43574 0.65626
92 2 0.43574 0.56074 0.78126
215 2 0.43574 0.478914 0.65626
280 2 0.478914 0.43574 0.78126
359 2 0.56074 0.43574 0.65626
619 1 0.519827 0.519827 0.71876
43 2 0.603914 0.56074 0.65626
108 2 0.68574 0.56074 0.78126
168 2 0.603914 0.478914 0.78126
231 2 0.68574 0.478914 0.65626
59 2 0.853914 0.56074 0.65626
184 2 0.853914 0.478914 0.78126
296 2 0.728914 0.43574 0.78126
375 2 0.81074 0.43574 0.65626
635 1 0.769827 0.519827 0.71876
124 2 0.93574 0.56074 0.78126
247 2 0.93574 0.478914 0.65626
312 2 0.978914 0.43574 0.78126
331 2 0.0607397 0.68574 0.65626
460 2 0.0607397 0.603914 0.78126
268 2 0.228914 0.68574 0.78126
395 2 0.228914 0.603914 0.65626
651 1 0.144827 0.644827 0.71876
347 2 0.31074 0.68574 0.65626
476 2 0.31074 0.603914 0.78126
667 1 0.394827 0.644827 0.71876
284 2 0.478914 0.68574 0.78126
363 2 0.56074 0.68574 0.65626
411 2 0.478914 0.603914 0.65626
492 2 0.56074 0.603914 0.78126
683 1 0.644827 0.644827 0.71876
300 2 0.728914 0.68574 0.78126
379 2 0.81074 0.68574 0.65626
427 2 0.728914 0.603914 0.65626
508 2 0.81074 0.603914 0.78126
316 2 0.978914 0.68574 0.78126
443 2 0.978914 0.603914 0.65626
699 1 0.894827 0.644827 0.71876
15 2 0.103914 0.81074 0.65626
140 2 0.103914 0.728914 0.78126
464 2 0.0607397 0.853914 0.78126
591 1 0.0198267 0.769827 0.71876
80 2 0.18574 0.81074 0.78126
203 2 0.18574 0.728914 0.65626
399 2 0.228914 0.853914 0.65626
607 1 0.269827 0.769827 0.71876
31 2 0.353914 0.81074 0.65626
156 2 0.353914 0.728914 0.78126
480 2 0.31074 0.853914 0.78126
96 2 0.43574 0.81074 0.78126
219 2 0.43574 0.728914 0.65626
415 2 0.478914 0.853914 0.65626
496 2 0.56074 0.853914 0.78126
623 1 0.519827 0.769827 0.71876
47 2 0.603914 0.81074 0.65626
112 2 0.68574 0.81074 0.78126
172 2 0.603914 0.728914 0.78126
235 2 0.68574 0.728914 0.65626
63 2 0.853914 0.81074 0.65626
188 2 0.853914 0.728914 0.78126
431 2 0.728914 0.853914 0.65626
512 2 0.81074 0.853914 0.78126
639 1 0.769827 0.769827 0.71876
128 2 0.93574 0.81074 0.78126
251 2 0.93574 0.728914 0.65626
447 2 0.978914 0.853914 0.65626
144 2 0.103914 0.978914 0.78126
335 2 0.0607397 0.93574 0.65626
207 2 0.18574 0.978914 0.65626
272 2 0.228914 0.93574 0.78126
655 1 0.144827 0.894827 0.71876
160 2 0.353914 0.978914 0.78126
351 2 0.31074 0.93574 0.65626
671 1 0.394827 0.894827 0.71876
223 2 0.43574 0.978914 0.65626
288 2 0.478914 0.93574 0.78126
367 2 0.56074 0.93574 0.65626
176 2 0.603914 0.978914 0.78126
239 2 0.68574 0.978914 0.65626
687 1 0.644827 0.894827 0.71876
192 2 0.853914 0.978914 0.78126
304 2 0.728914 0.93574 0.78126
383 2 0.81074 0.93574 0.65626
255 2 0.93574 0.978914 0.65626
320 2 0.978914 0.93574 0.78126
703 1 0.894827 0.894827 0.71876
4 2 0.103914 0.0607397 0.90626
516 1 0.0198267 0.0198267 0.84376
580 1 0.0198267 0.0198267 0.96876
388 2 0.228914 0.103914 0.90626
532 1 0.269827 0.0198267 0.84376
596 1 0.269827 0.0198267 0.96876
20 2 0.353914 0.0607397 0.90626
404 2 0.478914 0.103914 0.90626
548 1 0.519827 0.0198267 0.84376
612 1 0.519827 0.0198267 0.96876
36 2 0.603914 0.0607397 0.90626
52 2 0.853914 0.0607397 0.90626
420 2 0.728914 0.103914 0.90626
564 1 0.769827 0.0198267 0.84376
628 1 0.769827 0.0198267 0.96876
436 2 0.978914 0.103914 0.90626
324 2 0.0607397 0.18574 0.90626
520 1 0.0198267 0.269827 0.84376
584 1 0.0198267 0.269827 0.96876
196 2 0.18574 0.228914 0.90626
536 1 0.269827 0.269827 0.84376
600 1 0.269827 0.269827 0.96876
644 1 0.144827 0.144827 0.96876
708 1 0.144827 0.144827 0.84376
340 2 0.31074 0.18574 0.90626
660 1 0.394827 0.144827 0.96876
724 1 0.394827 0.144827 0.84376
212 2 0.43574 0.228914 0.90626
356 2 0.56074 0.18574 0.90626
552 1 0.519827 0.269827 0.84376
616 1 0.519827 0.269827 0.96876
228 2 0.68574 0.228914 0.90626
676 1 0.644827 0.144827 0.96876
740 1 0.644827 0.144827 0.84376
372 2 0.81074 0.18574 0.90626
568 1 0.769827 0.269827 0.84376
632 1 0.769827 0.269827 0.96876
244 2 0.93574 0.228914 0.90626
692 1 0.894827 0.144827 0.96876
756 1 0.894827 0.144827 0.84376
8 2 0.103914 0.31074 0.90626
392 2 0.228914 0.353914 0.90626
648 1 0.144827 0.394827 0.96876
712 1 0.144827 0.394827 0.84376
24 2 0.353914 0.31074 0.90626
664 1 0.394827 0.394827 0.96876
728 1 0.394827 0.394827 0.84376
408 2 0.478914 0.353914 0.90626
40 2 0.603914 0.31074 0.90626
680 1 0.644827 0.394827 0.96876
744 1 0.644827 0.394827 0.84376
56 2 0.853914 0.31074 0.90626
424 2 0.728914 0.353914 0.90626
440 2 0.978914 0.353914 0.90626
696 1 0.894827 0.394827 0.96876
760 1 0.894827 0.394827 0.84376
12 2 0.103914 0.56074 0.90626
328 2 0.0607397 0.43574 0.90626
524 1 0.0198267 0.519827 0.84376
588 1 0.0198267 0.519827 0.96876
200 2 0.18574 0.478914 0.90626
540 1 0.269827 0.519827 0.84376
604 1 0.269827 0.519827 0.96876
28 2 0.353914 0.56074 0.90626
344 2 0.31074 0.43574 0.90626
216 2 0.43574 0.478914 0.90626
360 2 0.56074 0.43574 0.90626
556 1 0.519827 0.519827 0.84376
620 1 0.519827 0.519827 0.96876
44 2 0.603914 0.56074 0.90626
232 2 0.68574 0.478914 0.90626
60 2 0.853914 0.56074 0.90626
376 2 0.81074 0.43574 0.90626
572 1 0.769827 0.519827 0.84376
636 1 0.769827 0.519827 0.96876
248 2 0.93574 0.478914 0.90626
332 2 0.0607397 0.68574 0.90626
396 2 0.228914 0.603914 0.90626
652 1 0.144827 0.644827 0.96876
716 1 0.144827 0.644827 0.84376
348 2 0.31074 0.68574 0.90626
668 1 0.394827 0.644827 0.96876
732 1 0.394827 0.644827 0.84376
364 2 0.56074 0.68574 0.90626
412 2 0.478914 0.603914 0.90626
684 1 0.644827 0.644827 0.96876
748 1 0.644827 0.644827 0.84376
380 2 0.81074 0.68574 0.90626
428 2 0.728914 0.603914 0.90626
444 2 0.978914 0.603914 0.90626
700 1 0.894827 0.644827 0.96876
764 1 0.894827 0.644827 0.84376
16 2 0.103914 0.81074 0.90626
528 1 0.0198267 0.769827 0.84376
592 1 0.0198267 0.769827 0.96876
204 2 0.18574 0.728914 0.90626
400 2 0.228914 0.853914 0.90626
544 1 0.269827 0.769827 0.84376
608 1 0.269827 0.769827 0.96876
32 2 0.353914 0.81074 0.90626
220 2 0.43574 0.728914 0.90626
416 2 0.478914 0.853914 0.90626
560 1 0.519827 0.769827 0.84376
624 1 0.519827 0.769827 0.96876
48 2 0.603914 0.81074 0.90626
236 2 0.68574 0.728914 0.90626
64 2 0.853914 0.81074 0.90626
432 2 0.728914 0.853914 0.90626
576 1 0.769827 0.769827 0.84376
640 1 0.769827 0.769827 0.96876
252 2 0.93574 0.728914 0.90626
448 2 0.978914 0.853914 0.90626
336 2 0.0607397 0.93574 0.90626
208 2 0.18574 0.978914 0.90626
656 1 0.144827 0.894827 0.96876
720 1 0.144827 0.894827 0.84376
352 2 0.31074 0.93574 0.90626
672 1 0.394827 0.894827 0.96876
736 1 0.394827 0.894827 0.84376
224 2 0.43574 0.978914 0.90626
368 2 0.56074 0.93574 0.90626
240 2 0.68574 0.978914 0.90626
688 1 0.644827 0.894827 0.96876
752 1 0.644827 0.894827 0.84376
384 2 0.81074 0.93574 0.90626
256 2 0.93574 0.978914 0.90626
704 1 0.894827 0.894827 0.96876
768 1 0.894827 0.894827 0.84376
ITEM: TIMESTEP
100
ITEM: NUMBER OF ATOMS
768
ITEM: BOX BOUNDS pp pp pp
-4.9533700000000003e-01 2.4004663000000001e+01
-4.9533700000000003e-01 2.4004663000000001e+01
-6.3124999999999998e-01 1.9268750000000001e+01
ITEM: ATOMS id type xs ys zs
1 2 0.103914 0.0607397 0.15626
449 2 0.0607397 0.103914 0.0312605
513 1 0.0198267 0.0198267 0.0937605
65 2 0.18574 0.0607397 0.0312605
385 2 0.228914 0.103914 0.15626
529 1 0.269827 0.0198267 0.0937605
17 2 0.353914 0.0607397 0.15626
465 2 0.31074 0.103914 0.0312605
81 2 0.43574 0.0607397 0.0312605
401 2 0.478914 0.103914 0.15626
481 2 0.56074 0.103914 0.0312605
545 1 0.519827 0.0198267 0.0937605
33 2 0.603914 0.0607397 0.15626
97 2 0.68574 0.0607397 0.0312605
49 2 0.853914 0.0607397 0.15626
417 2 0.728914 0.103914 0.15626
497 2 0.81074 0.103914 0.0312605
561 1 0.769827 0.0198267 0.0937605
113 2 0.93574 0.0607397 0.0312605
433 2 0.978914 0.103914 0.15626
129 2 0.103914 0.228914 0.0312605
321 2 0.0607397 0.18574 0.15626
517 1 0.0198267 0.269827 0.0937605
193 2 0.18574 0.228914 0.15626
257 2 0.228914 0.18574 0.0312605
533 1 0.269827 0.269827 0.0937605
705 1 0.144827 0.144827 0.0937605
145 2 0.353914 0.228914 0.0312605
337 2 0.31074 0.18574 0.15626
721 1 0.394827 0.144827 0.0937605
209 2 0.43574 0.228914 0.15626
273 2 0.478914 0.18574 0.0312605
353 2 0.56074 0.18574 0.15626
549 1 0.519827 0.269827 0.0937605
161 2 0.603914 0.228914 0.0312605
225 2 0.68574 0.228914 0.15626
737 1 0.644827 0.144827 0.0937605
177 2 0.853914 0.228914 0.0312605
289 2 0.728914 0.18574 0.0312605
369 2 0.81074 0.18574 0.15626
565 1 0.769827 0.269827 0.0937605
241 2 0.93574 0.228914 0.15626
305 2 0.978914 0.18574 0.0312605
753 1 0.894827 0.144827 0.0937605
5 2 0.103914 0.31074 0.15626
453 2 0.0607397 0.353914 0.0312605
69 2 0.18574 0.31074 0.0312605
389 2 0.228914 0.353914 0.15626
709 1 0.144827 0.394827 0.0937605
21 2 0.353914 0.31074 0.15626
469 2 0.31074 0.353914 0.0312605
725 1 0.394827 0.394827 0.0937605
85 2 0.43574 0.31074 0.0312605
405 2 0.478914 0.353914 0.15626
485 2 0.56074 0.353914 0.0312605
37 2 0.603914 0.31074 0.15626
101 2 0.68574 0.31074 0.0312605
741 1 0.644827 0.394827 0.0937605
53 2 0.853914 0.31074 0.15626
421 2 0.728914 0.353914 0.15626
501 2 0.81074 0.353914 0.0312605
117 2 0.93574 0.31074 0.0312605
437 2 0.978914 0.353914 0.15626
757 1 0.894827 0.394827 0.0937605
9 2 0.103914 0.56074 0.15626
133 2 0.103914 0.478914 0.0312605
325 2 0.0607397 0.43574 0.15626
521 1 0.0198267 0.519827 0.0937605
73 2 0.18574 0.56074 0.0312605
197 2 0.18574 0.478914 0.15626
261 2 0.228914 0.43574 0.0312605
537 1 0.269827 0.519827 0.0937605
25 2 0.353914 0.56074 0.15626
149 2 0.353914 0.478914 0.0312605
341 2 0.31074 0.43574 0.15626
89 2 0.43574 0.56074 0.0312605
213 2 0.43574 0.478914 0.15626
277 2 0.478914 0.43574 0.0312605
357 2 0.56074 0.43574 0.15626
553 1 0.519827 0.519827 0.0937605
41 2 0.603914 0.56074 0.15626
105 2 0.68574 0.56074 0.0312605
165 2 0.603914 0.478914 0.0312605
229 2 0.68574 0.478914 0.15626
57 2 0.853914 0.56074 0.15626
181 2 0.853914 0.478914 0.0312605
293 2 0.728914 0.43574 0.0312605
373 2 0.81074 0.43574 0.15626
569 1 0.769827 0.519827 0.0937605
121 2 0.93574 0.56074 0.0312605
245 2 0.93574 0.478914 0.15626
309 2 0.978914 0.43574 0.0312605
329 2 0.0607397 0.68574 0.15626
457 2 0.0607397 0.603914 0.0312605
265 2 0.228914 0.68574 0.0312605
393 2 0.228914 0.603914 0.15626
713 1 0.144827 0.644827 0.0937605
345 2 0.31074 0.68574 0.15626
473 2 0.31074 0.603914 0.0312605
729 1 0.394827 0.644827 0.0937605
281 2 0.478914 0.68574 0.0312605
361 2 0.56074 0.68574 0.15626
409 2 0.478914 0.603914 0.15626
489 2 0.56074 0.603914 0.0312605
745 1 0.644827 0.644827 0.0937605
297 2 0.728914 0.68574 0.0312605
377 2 0.81074 0.68574 0.15626
425 2 0.728914 0.603914 0.15626
505 2 0.81074 0.603914 0.0312605
313 2 0.978914 0.68574 0.0312605
441 2 0.978914 0.603914 0.15626
761 1 0.894827 0.644827 0.0937605
13 2 0.103914 0.81074 0.15626
137 2 0.103914 0.728914 0.0312605
461 2 0.0607397 0.853914 0.0312605
525 1 0.0198267 0.769827 0.0937605
77 2 0.18574 0.81074 0.0312605
201 2 0.18574 0.728914 0.15626
397 2 0.228914 0.853914 0.15626
541 1 0.269827 0.769827 0.0937605
29 2 0.353914 0.81074 0.15626
153 2 0.353914 0.728914 0.0312605
477 2 0.31074 0.853914 0.0312605
93 2 0.43574 0.81074 0.0312605
217 2 0.43574 0.728914 0.15626
413 2 0.478914 0.853914 0.15626
493 2 0.56074 0.853914 0.0312605
557 1 0.519827 0.769827 0.0937605
45 2 0.603914 0.81074 0.15626
109 2 0.68574 0.81074 0.0312605
169 2 0.603914 0.728914 0.0312605
233 2 0.68574 0.728914 0.15626
61 2 0.853914 0.81074 0.15626
185 2 0.853914 0.728914 0.0312605
429 2 0.728914 0.853914 0.15626
509 2 0.81074 0.853914 0.0312605
573 1 0.769827 0.769827 0.0937605
125 2 0.93574 0.81074 0.0312605
249 2 0.93574 0.728914 0.15626
445 2 0.978914 0.853914 0.15626
141 2 0.103914 0.978914 0.0312605
333 2 0.0607397 0.93574 0.15626
205 2 0.18574 0.978914 0.15626
269 2 0.228914 0.93574 0.0312605
717 1 0.144827 0.894827 0.0937605
157 2 0.353914 0.978914 0.0312605
349 2 0.31074 0.93574 0.15626
733 1 0.394827 0.894827 0.0937605
221 2 0.43574 0.978914 0.15626
285 2 0.478914 0.93574 0.0312605
365 2 0.56074 0.93574 0.15626
173 2 0.603914 0.978914 0.0312605
237 2 0.68574 0.978914 0.15626
749 1 0.644827 0.894827 0.0937605
189 2 0.853914 0.978914 0.0312605
301 2 0.728914 0.93574 0.0312605
381 2 0.81074 0.93574 0.15626
253 2 0.93574 0.978914 0.15626
317 2 0.978914 0.93574 0.0312605