ITEM: TIMESTEP
0
ITEM: NUMBER OF ATOMS
512
ITEM: BOX BOUNDS pp pp pp
-4.0000000000000001e-02 1.6160001000000001e+01
-4.0000000000000001e-02 1.6160001000000001e+01
-4.0001000000000002e-02 1.6160000000000000e+01
ITEM: ATOMS id type xs ys zs
1 2 0.209691 0.168147 0.0646606
65 2 0.044013 0.209691 0.189043
129 2 0.0855568 0.044013 0.0646606
193 2 0.044013 0.0855568 0.189043
257 2 0.209691 0.044013 0.0646606
321 2 0.168147 0.209691 0.189043
385 1 0.0853909 0.168313 0.0646606
449 1 0.168313 0.0853909 0.189043
17 2 0.458456 0.168147 0.0646606
81 2 0.292778 0.209691 0.189043
145 2 0.334322 0.044013 0.0646606
209 2 0.292778 0.0855568 0.189043
273 2 0.458456 0.044013 0.0646606
337 2 0.416912 0.209691 0.189043
401 1 0.334156 0.168313 0.0646606
465 1 0.417078 0.0853909 0.189043
33 2 0.707222 0.168147 0.0646606
97 2 0.541544 0.209691 0.189043
161 2 0.583088 0.044013 0.0646606
225 2 0.541544 0.0855568 0.189043
289 2 0.707222 0.044013 0.0646606
353 2 0.665678 0.209691 0.189043
417 1 0.582922 0.168313 0.0646606
481 1 0.665844 0.0853909 0.189043
49 2 0.955987 0.168147 0.0646606
113 2 0.790309 0.209691 0.189043
177 2 0.831853 0.044013 0.0646606
241 2 0.790309 0.0855568 0.189043
305 2 0.955987 0.044013 0.0646606
369 2 0.914443 0.209691 0.189043
433 1 0.831687 0.168313 0.0646606
497 1 0.914609 0.0853909 0.189043
5 2 0.209691 0.416912 0.0646606
69 2 0.044013 0.458456 0.189043
133 2 0.0855568 0.292778 0.0646606
197 2 0.044013 0.334322 0.189043
261 2 0.209691 0.292778 0.0646606
325 2 0.168147 0.458456 0.189043
389 1 0.0853909 0.417078 0.0646606
453 1 0.168313 0.334156 0.189043
21 2 0.458456 0.416912 0.0646606
85 2 0.292778 0.458456 0.189043
149 2 0.334322 0.292778 0.0646606
213 2 0.292778 0.334322 0.189043
277 2 0.458456 0.292778 0.0646606
341 2 0.416912 0.458456 0.189043
405 1 0.334156 0.417078 0.0646606
469 1 0.417078 0.334156 0.189043
37 2 0.707222 0.416912 0.0646606
101 2 0.541544 0.458456 0.189043
165 2 0.583088 0.292778 0.0646606
229 2 0.541544 0.334322 0.189043
293 2 0.707222 0.292778 0.0646606
357 2 0.665678 0.458456 0.189043
421 1 0.582922 0.417078 0.0646606
485 1 0.665844 0.334156 0.189043
53 2 0.955987 0.416912 0.0646606
117 2 0.790309 0.458456 0.189043
181 2 0.831853 0.292778 0.0646606
245 2 0.790309 0.334322 0.189043
309 2 0.955987 0.292778 0.0646606
373 2 0.914443 0.458456 0.189043
437 1 0.831687 0.417078 0.0646606
501 1 0.914609 0.334156 0.189043
9 2 0.209691 0.665678 0.0646606
73 2 0.044013 0.707222 0.189043
137 2 0.0855568 0.541544 0.0646606
201 2 0.044013 0.583088 0.189043
265 2 0.209691 0.541544 0.0646606
329 2 0.168147 0.707222 0.189043
393 1 0.0853909 0.665844 0.0646606
457 1 0.168313 0.582922 0.189043
25 2 0.458456 0.665678 0.0646606
89 2 0.292778 0.707222 0.189043
153 2 0.334322 0.541544 0.0646606
217 2 0.292778 0.583088 0.189043
281 2 0.458456 0.541544 0.0646606
345 2 0.416912 0.707222 0.189043
409 1 0.334156 0.665844 0.0646606
473 1 0.417078 0.582922 0.189043
41 2 0.707222 0.665678 0.0646606
105 2 0.541544 0.707222 0.189043
169 2 0.583088 0.541544 0.0646606
233 2 0.541544 0.583088 0.189043
297 2 0.707222 0.541544 0.0646606
361 2 0.665678 0.707222 0.189043
425 1 0.582922 0.665844 0.0646606
489 1 0.665844 0.582922 0.189043
57 2 0.955987 0.665678 0.0646606
121 2 0.790309 0.707222 0.189043
185 2 0.831853 0.541544 0.0646606
249 2 0.790309 0.583088 0.189043
313 2 0.955987 0.541544 0.0646606
377 2 0.914443 0.707222 0.189043
441 1 0.831687 0.665844 0.0646606
505 1 0.914609 0.582922 0.189043
13 2 0.209691 0.914443 0.0646606
77 2 0.044013 0.955987 0.189043
141 2 0.0855568 0.790309 0.0646606
205 2 0.044013 0.831853 0.189043
269 2 0.209691 0.790309 0.0646606
333 2 0.168147 0.955987 0.189043
397 1 0.0853909 0.914609 0.0646606
461 1 0.168313 0.831687 0.189043
29 2 0.458456 0.914443 0.0646606
93 2 0.292778 0.955987 0.189043
157 2 0.334322 0.790309 0.0646606
221 2 0.292778 0.831853 0.189043
285 2 0.458456 0.790309 0.0646606
349 2 0.416912 0.955987 0.189043
413 1 0.334156 0.914609 0.0646606
477 1 0.417078 0.831687 0.189043
45 2 0.707222 0.914443 0.0646606
109 2 0.541544 0.955987 0.189043
173 2 0.583088 0.790309 0.0646606
237 2 0.541544 0.831853 0.189043
301 2 0.707222 0.790309 0.0646606
365 2 0.665678 0.955987 0.189043
429 1 0.582922 0.914609 0.0646606
493 1 0.665844 0.831687 0.189043
61 2 0.955987 0.914443 0.0646606
125 2 0.790309 0.955987 0.189043
189 2 0.831853 0.790309 0.0646606
253 2 0.790309 0.831853 0.189043
317 2 0.955987 0.790309 0.0646606
381 2 0.914443 0.955987 0.189043
445 1 0.831687 0.914609 0.0646606
509 1 0.914609 0.831687 0.189043
2 2 0.209691 0.168147 0.313426
66 2 0.044013 0.209691 0.437809
130 2 0.0855568 0.044013 0.313426
194 2 0.044013 0.0855568 0.437809
258 2 0.209691 0.044013 0.313426
322 2 0.168147 0.209691 0.437809
386 1 0.0853909 0.168313 0.313426
450 1 0.168313 0.0853909 0.437809
18 2 0.458456 0.168147 0.313426
82 2 0.292778 0.209691 0.437809
146 2 0.334322 0.044013 0.313426
210 2 0.292778 0.0855568 0.437809
274 2 0.458456 0.044013 0.313426
338 2 0.416912 0.209691 0.437809
402 1 0.334156 0.168313 0.313426
466 1 0.417078 0.0853909 0.437809
34 2 0.707222 0.168147 0.313426
98 2 0.541544 0.209691 0.437809
162 2 0.583088 0.044013 0.313426
226 2 0.541544 0.0855568 0.437809
290 2 0.707222 0.044013 0.313426
354 2 0.665678 0.209691 0.437809
418 1 0.582922 0.168313 0.313426
482 1 0.665844 0.0853909 0.437809
50 2 0.955987 0.168147 0.313426
114 2 0.790309 0.209691 0.437809
178 2 0.831853 0.044013 0.313426
242 2 0.790309 0.0855568 0.437809
306 2 0.955987 0.044013 0.313426
370 2 0.914443 0.209691 0.437809
434 1 0.831687 0.168313 0.313426
498 1 0.914609 0.0853909 0.437809
6 2 0.209691 0.416912 0.313426
70 2 0.044013 0.458456 0.437809
134 2 0.0855568 0.292778 0.313426
198 2 0.044013 0.334322 0.437809
262 2 0.209691 0.292778 0.313426
326 2 0.168147 0.458456 0.437809
390 1 0.0853909 0.417078 0.313426
454 1 0.168313 0.334156 0.437809
22 2 0.458456 0.416912 0.313426
86 2 0.292778 0.458456 0.437809
150 2 0.334322 0.292778 0.313426
214 2 0.292778 0.334322 0.437809
278 2 0.458456 0.292778 0.313426
342 2 0.416912 0.458456 0.437809
406 1 0.334156 0.417078 0.313426
470 1 0.417078 0.334156 0.437809
38 2 0.707222 0.416912 0.313426
102 2 0.541544 0.458456 0.437809
166 2 0.583088 0.292778 0.313426
230 2 0.541544 0.334322 0.437809
294 2 0.707222 0.292778 0.313426
358 2 0.665678 0.458456 0.437809
422 1 0.582922 0.417078 0.313426
486 1 0.665844 0.334156 0.437809
54 2 0.955987 0.416912 0.313426
118 2 0.790309 0.458456 0.437809
182 2 0.831853 0.292778 0.313426
246 2 0.790309 0.334322 0.437809
310 2 0.955987 0.292778 0.313426
374 2 0.914443 0.458456 0.437809
438 1 0.831687 0.417078 0.313426
502 1 0.914609 0.334156 0.437809
10 2 0.209691 0.665678 0.313426
74 2 0.044013 0.707222 0.437809
138 2 0.0855568 0.541544 0.313426
202 2 0.044013 0.583088 0.437809
266 2 0.209691 0.541544 0.313426
330 2 0.168147 0.707222 0.437809
394 1 0.0853909 0.665844 0.313426
458 1 0.168313 0.582922 0.437809
26 2 0.458456 0.665678 0.313426
90 2 0.292778 0.707222 0.437809
154 2 0.334322 0.541544 0.313426
218 2 0.292778 0.583088 0.437809
282 2 0.458456 0.541544 0.313426
346 2 0.416912 0.707222 0.437809
410 1 0.334156 0.665844 0.313426
474 1 0.417078 0.582922 0.437809
42 2 0.707222 0.665678 0.313426
106 2 0.541544 0.707222 0.437809
170 2 0.583088 0.541544 0.313426
234 2 0.541544 0.583088 0.437809
298 2 0.707222 0.541544 0.313426
362 2 0.665678 0.707222 0.437809
426 1 0.582922 0.665844 0.313426
490 1 0.665844 0.582922 0.437809
58 2 0.955987 0.665678 0.313426
122 2 0.790309 0.707222 0.437809
186 2 0.831853 0.541544 0.313426
250 2 0.790309 0.583088 0.437809
314 2 0.955987 0.541544 0.313426
378 2 0.914443 0.707222 0.437809
442 1 0.831687 0.665844 0.313426
506 1 0.914609 0.582922 0.437809
14 2 0.209691 0.914443 0.313426
78 2 0.044013 0.955987 0.437809
142 2 0.0855568 0.790309 0.313426
206 2 0.044013 0.831853 0.437809
270 2 0.209691 0.790309 0.313426
334 2 0.168147 0.955987 0.437809
398 1 0.0853909 0.914609 0.313426
462 1 0.168313 0.831687 0.437809
30 2 0.458456 0.914443 0.313426
94 2 0.292778 0.955987 0.437809
158 2 0.334322 0.790309 0.313426
222 2 0.292778 0.831853 0.437809
286 2 0.458456 0.790309 0.313426
350 2 0.416912 0.955987 0.437809
414 1 0.334156 0.914609 0.313426
478 1 0.417078 0.831687 0.437809
46 2 0.707222 0.914443 0.313426
110 2 0.541544 0.955987 0.437809
174 2 0.583088 0.790309 0.313426
238 2 0.541544 0.831853 0.437809
302 2 0.707222 0.790309 0.313426
366 2 0.665678 0.955987 0.437809
430 1 0.582922 0.914609 0.313426
494 1 0.665844 0.831687 0.437809
62 2 0.955987 0.914443 0.313426
126 2 0.790309 0.955987 0.437809
190 2 0.831853 0.790309 0.313426
254 2 0.790309 0.831853 0.437809
318 2 0.955987 0.790309 0.313426
382 2 0.914443 0.955987 0.437809
446 1 0.831687 0.914609 0.313426
510 1 0.914609 0.831687 0.437809
3 2 0.209691 0.168147 0.562191
67 2 0.044013 0.209691 0.686574
131 2 0.0855568 0.044013 0.562191
195 2 0.044013 0.0855568 0.686574
259 2 0.209691 0.044013 0.562191
323 2 0.168147 0.209691 0.686574
387 1 0.0853909 0.168313 0.562191
451 1 0.168313 0.0853909 0.686574
19 2 0.458456 0.168147 0.562191
83 2 0.292778 0.209691 0.686574
147 2 0.334322 0.044013 0.562191
211 2 0.292778 0.0855568 0.686574
275 2 0.458456 0.044013 0.562191
339 2 0.416912 0.209691 0.686574
403 1 0.334156 0.168313 0.562191
467 1 0.417078 0.0853909 0.686574
35 2 0.707222 0.168147 0.562191
99 2 0.541544 0.209691 0.686574
163 2 0.583088 0.044013 0.562191
227 2 0.541544 0.0855568 0.686574
291 2 0.707222 0.044013 0.562191
355 2 0.665678 0.209691 0.686574
419 1 0.582922 0.168313 0.562191
483 1 0.665844 0.0853909 0.686574
51 2 0.955987 0.168147 0.562191
115 2 0.790309 0.209691 0.686574
179 2 0.831853 0.044013 0.562191
243 2 0.790309 0.0855568 0.686574
307 2 0.955987 0.044013 0.562191
371 2 0.914443 0.209691 0.686574
435 1 0.831687 0.168313 0.562191
499 1 0.914609 0.0853909 0.686574
7 2 0.209691 0.416912 0.562191
71 2 0.044013 0.458456 0.686574
135 2 0.0855568 0.292778 0.562191
199 2 0.044013 0.334322 0.686574
263 2 0.209691 0.292778 0.562191
327 2 0.168147 0.458456 0.686574
391 1 0.0853909 0.417078 0.562191
455 1 0.168313 0.334156 0.686574
23 2 0.458456 0.416912 0.562191
87 2 0.292778 0.458456 0.686574
151 2 0.334322 0.292778 0.562191
215 2 0.292778 0.334322 0.686574
279 2 0.458456 0.292778 0.562191
343 2 0.416912 0.458456 0.686574
407 1 0.334156 0.417078 0.562191
471 1 0.417078 0.334156 0.686574
39 2 0.707222 0.416912 0.562191
103 2 0.541544 0.458456 0.686574
167 2 0.583088 0.292778 0.562191
231 2 0.541544 0.334322 0.686574
295 2 0.707222 0.292778 0.562191
359 2 0.665678 0.458456 0.686574
423 1 0.582922 0.417078 0.562191
487 1 0.665844 0.334156 0.686574
55 2 0.955987 0.416912 0.562191
119 2 0.790309 0.458456 0.686574
183 2 0.831853 0.292778 0.562191
247 2 0.790309 0.334322 0.686574
311 2 0.955987 0.292778 0.562191
375 2 0.914443 0.458456 0.686574
439 1 0.831687 0.417078 0.562191
503 1 0.914609 0.334156 0.686574
11 2 0.209691 0.665678 0.562191
75 2 0.044013 0.707222 0.686574
139 2 0.0855568 0.541544 0.562191
203 2 0.044013 0.583088 0.686574
267 2 0.209691 0.541544 0.562191
331 2 0.168147 0.707222 0.686574
395 1 0.0853909 0.665844 0.562191
459 1 0.168313 0.582922 0.686574
27 2 0.458456 0.665678 0.562191
91 2 0.292778 0.707222 0.686574
155 2 0.334322 0.541544 0.562191
219 2 0.292778 0.583088 0.686574
283 2 0.458456 0.541544 0.562191
347 2 0.416912 0.707222 0.686574
411 1 0.334156 0.665844 0.562191
475 1 0.417078 0.582922 0.686574
43 2 0.707222 0.665678 0.562191
107 2 0.541544 0.707222 0.686574
171 2 0.583088 0.541544 0.562191
235 2 0.541544 0.583088 0.686574
299 2 0.707222 0.541544 0.562191
363 2 0.665678 0.707222 0.686574
427 1 0.582922 0.665844 0.562191
491 1 0.665844 0.582922 0.686574
59 2 0.955987 0.665678 0.562191
123 2 0.790309 0.707222 0.686574
187 2 0.831853 0.541544 0.562191
251 2 0.790309 0.583088 0.686574
315 2 0.955987 0.541544 0.562191
379 2 0.914443 0.707222 0.686574
443 1 0.831687 0.665844 0.562191
507 1 0.914609 0.582922 0.686574
15 2 0.209691 0.914443 0.562191
79 2 0.044013 0.955987 0.686574
143 2 0.0855568 0.790309 0.562191
207 2 0.044013 0.831853 0.686574
271 2 0.209691 0.790309 0.562191
335 2 0.168147 0.955987 0.686574
399 1 0.0853909 0.914609 0.562191
463 1 0.168313 0.831687 0.686574
31 2 0.458456 0.914443 0.562191
95 2 0.292778 0.955987 0.686574
159 2 0.334322 0.790309 0.562191
223 2 0.292778 0.831853 0.686574
287 2 0.458456 0.790309 0.562191
351 2 0.416912 0.955987 0.686574
415 1 0.334156 0.914609 0.562191
479 1 0.417078 0.831687 0.686574
47 2 0.707222 0.914443 0.562191
111 2 0.541544 0.955987 0.686574
175 2 0.583088 0.790309 0.562191
239 2 0.541544 0.831853 0.686574
303 2 0.707222 0.790309 0.562191
367 2 0.665678 0.955987 0.686574
431 1 0.582922 0.914609 0.562191
495 1 0.665844 0.831687 0.686574
63 2 0.955987 0.914443 0.562191
127 2 0.790309 0.955987 0.686574
191 2 0.831853 0.790309 0.562191
255 2 0.790309 0.831853 0.686574
319 2 0.955987 0.790309 0.562191
383 2 0.914443 0.955987 0.686574
447 1 0.831687 0.914609 0.562191
511 1 0.914609 0.831687 0.686574
4 2 0.209691 0.168147 0.810957
68 2 0.044013 0.209691 0.93534
132 2 0.0855568 0.044013 0.810957
196 2 0.044013 0.0855568 0.93534
260 2 0.209691 0.044013 0.810957
324 2 0.168147 0.209691 0.93534
388 1 0.0853909 0.168313 0.810957
452 1 0.168313 0.0853909 0.93534
20 2 0.458456 0.168147 0.810957
84 2 0.292778 0.209691 0.93534
148 2 0.334322 0.044013 0.810957
212 2 0.292778 0.0855568 0.93534
276 2 0.458456 0.044013 0.810957
340 2 0.416912 0.209691 0.93534
404 1 0.334156 0.168313 0.810957
468 1 0.417078 0.0853909 0.93534
36 2 0.707222 0.168147 0.810957
100 2 0.541544 0.209691 0.93534
164 2 0.583088 0.044013 0.810957
228 2 0.541544 0.0855568 0.93534
292 2 0.707222 0.044013 0.810957
356 2 0.665678 0.209691 0.93534
420 1 0.582922 0.168313 0.810957
484 1 0.665844 0.0853909 0.93534
52 2 0.955987 0.168147 0.810957
116 2 0.790309 0.209691 0.93534
180 2 0.831853 0.044013 0.810957
244 2 0.790309 0.0855568 0.93534
308 2 0.955987 0.044013 0.810957
372 2 0.914443 0.209691 0.93534
436 1 0.831687 0.168313 0.810957
500 1 0.914609 0.0853909 0.93534
8 2 0.209691 0.416912 0.810957
72 2 0.044013 0.458456 0.93534
136 2 0.0855568 0.292778 0.810957
200 2 0.044013 0.334322 0.93534
264 2 0.209691 0.292778 0.810957
328 2 0.168147 0.458456 0.93534
392 1 0.0853909 0.417078 0.810957
456 1 0.168313 0.334156 0.93534
24 2 0.458456 0.416912 0.810957
88 2 0.292778 0.458456 0.93534
152 2 0.334322 0.292778 0.810957
216 2 0.292778 0.334322 0.93534
280 2 0.458456 0.292778 0.810957
344 2 0.416912 0.458456 0.93534
408 1 0.334156 0.417078 0.810957
472 1 0.417078 0.334156 0.93534
40 2 0.707222 0.416912 0.810957
104 2 0.541544 0.458456 0.93534
168 2 0.583088 0.292778 0.810957
232 2 0.541544 0.334322 0.93534
296 2 0.707222 0.292778 0.810957
360 2 0.665678 0.458456 0.93534
424 1 0.582922 0.417078 0.810957
488 1 0.665844 0.334156 0.93534
56 2 0.955987 0.416912 0.810957
120 2 0.790309 0.458456 0.93534
184 2 0.831853 0.292778 0.810957
248 2 0.790309 0.334322 0.93534
312 2 0.955987 0.292778 0.810957
376 2 0.914443 0.458456 0.93534
440 1 0.831687 0.417078 0.810957
504 1 0.914609 0.334156 0.93534
12 2 0.209691 0.665678 0.810957
76 2 0.044013 0.707222 0.93534
140 2 0.0855568 0.541544 0.810957
204 2 0.044013 0.583088 0.93534
268 2 0.209691 0.541544 0.810957
332 2 0.168147 0.707222 0.93534
396 1 0.0853909 0.665844 0.810957
460 1 0.168313 0.582922 0.93534
28 2 0.458456 0.665678 0.810957
92 2 0.292778 0.707222 0.93534
156 2 0.334322 0.541544 0.810957
220 2 0.292778 0.583088 0.93534
284 2 0.458456 0.541544 0.810957
348 2 0.416912 0.707222 0.93534
412 1 0.334156 0.665844 0.810957
476 1 0.417078 0.582922 0.93534
44 2 0.707222 0.665678 0.810957
108 2 0.541544 0.707222 0.93534
172 2 0.583088 0.541544 0.810957
236 2 0.541544 0.583088 0.93534
300 2 0.707222 0.541544 0.810957
364 2 0.665678 0.707222 0.93534
428 1 0.582922 0.665844 0.810957
492 1 0.665844 0.582922 0.93534
60 2 0.955987 0.665678 0.810957
124 2 0.790309 0.707222 0.93534
188 2 0.831853 0.541544 0.810957
252 2 0.790309 0.583088 0.93534
316 2 0.955987 0.541544 0.810957
380 2 0.914443 0.707222 0.93534
444 1 0.831687 0.665844 0.810957
508 1 0.914609 0.582922 0.93534
16 2 0.209691 0.914443 0.810957
80 2 0.044013 0.955987 0.93534
144 2 0.0855568 0.790309 0.810957
208 2 0.044013 0.831853 0.93534
272 2 0.209691 0.790309 0.810957
336 2 0.168147 0.955987 0.93534
400 1 0.0853909 0.914609 0.810957
464 1 0.168313 0.831687 0.93534
32 2 0.458456 0.914443 0.810957
96 2 0.292778 0.955987 0.93534
160 2 0.334322 0.790309 0.810957
224 2 0.292778 0.831853 0.93534
288 2 0.458456 0.790309 0.810957
352 2 0.416912 0.955987 0.93534
416 1 0.334156 0.914609 0.810957
480 1 0.417078 0.831687 0.93534
48 2 0.707222 0.914443 0.810957
112 2 0.541544 0.955987 0.93534
176 2 0.583088 0.790309 0.810957
240 2 0.541544 0.831853 0.93534
304 2 0.707222 0.790309 0.810957
368 2 0.665678 0.955987 0.93534
432 1 0.582922 0.914609 0.810957
496 1 0.665844 0.831687 0.93534
64 2 0.955987 0.914443 0.810957
128 2 0.790309 0.955987 0.93534
192 2 0.831853 0.790309 0.810957
256 2 0.790309 0.831853 0.93534
320 2 0.955987 0.790309 0.810957
384 2 0.914443 0.955987 0.93534
448 1 0.831687 0.914609 0.810957
512 1 0.914609 0.831687 0.93534
ITEM: TIMESTEP
19
ITEM: NUMBER OF ATOMS
512
ITEM: BOX BOUNDS pp pp pp
-4.0000000000000001e-02 1.6160001000000001e+01
-4.0000000000000001e-02 1.6160001000000001e+01
-4.0001000000000002e-02 1.6160000000000000e+01
ITEM: ATOMS id type xs ys zs
1 2 0.220898 0.164887 0.0826435
65 2 0.0775378 0.21673 0.187593
129 2 0.104303 0.064298 0.0834659
193 2 0.0671107 0.0905195 0.20424
257 2 0.20631 0.0846316 0.0757382
321 2 0.153598 0.217255 0.225039
385 1 0.0846708 0.163036 0.0861313
449 1 0.16089 0.0987177 0.180069
17 2 0.469679 0.162045 0.0837056
81 2 0.270906 0.236469 0.18456
145 2 0.346791 0.0584167 0.0865769
209 2 0.287625 0.0897116 0.193904
273 2 0.466529 0.0732035 0.0790045
337 2 0.386381 0.216547 0.210657
401 1 0.338275 0.163233 0.084237
465 1 0.412922 0.0941248 0.18768
33 2 0.716354 0.163074 0.078253
97 2 0.517502 0.234557 0.184052
161 2 0.594988 0.0590061 0.0861208
225 2 0.533072 0.0905829 0.197205
289 2 0.718501 0.0762689 0.0755808
353 2 0.648936 0.217792 0.207141
417 1 0.590705 0.16087 0.0798017
481 1 0.67072 0.0949467 0.192526
49 2 0.935806 0.156354 0.0867345
113 2 0.765025 0.235079 0.185953
177 2 0.838608 0.0610511 0.0861391
241 2 0.787788 0.0971774 0.196935
305 2 0.914926 0.0736098 0.0718459
369 2 0.893225 0.231997 0.196959
433 1 0.840707 0.162459 0.0894405
497 1 0.922114 0.0913232 0.182391
5 2 0.217487 0.402473 0.0829398
69 2 0.0769488 0.467681 0.185547
133 2 0.10536 0.302894 0.0852408
197 2 0.063472 0.349966 0.200842
261 2 0.213219 0.280892 0.0793174
325 2 0.153726 0.465242 0.224597
389 1 0.0785307 0.408229 0.0835238
453 1 0.155295 0.344968 0.177431
21 2 0.467116 0.400355 0.0850203
85 2 0.268804 0.485362 0.18763
149 2 0.344023 0.283877 0.0853266
213 2 0.284216 0.361706 0.207927
277 2 0.472964 0.275798 0.0815063
341 2 0.38708 0.469636 0.20652
405 1 0.336268 0.407592 0.0791663
469 1 0.400453 0.348327 0.175463
37 2 0.709856 0.399327 0.0832285
101 2 0.516102 0.483735 0.185539
165 2 0.600573 0.285922 0.0818404
229 2 0.529344 0.36308 0.211376
293 2 0.726509 0.273416 0.0802238
357 2 0.634178 0.468343 0.205251
421 1 0.590473 0.41125 0.0795312
485 1 0.644877 0.347728 0.18324
53 2 0.933154 0.400295 0.0835435
117 2 0.765108 0.485581 0.184211
181 2 0.842303 0.280013 0.0805196
245 2 0.787497 0.365743 0.214801
309 2 0.913098 0.276617 0.0813877
373 2 0.890871 0.479347 0.194146
437 1 0.840712 0.409544 0.089694
501 1 0.918057 0.326453 0.189913
9 2 0.218708 0.658201 0.0851809
73 2 0.0756921 0.720671 0.191502
137 2 0.106156 0.544882 0.0870831
201 2 0.0654772 0.599928 0.201402
265 2 0.215462 0.53365 0.0809689
329 2 0.153407 0.713998 0.228357
393 1 0.0801154 0.662866 0.0809604
457 1 0.153369 0.599277 0.174166
25 2 0.4684 0.656838 0.0872253
89 2 0.268067 0.730316 0.189556
153 2 0.341804 0.529479 0.0866847
217 2 0.286423 0.61451 0.210361
281 2 0.472776 0.527876 0.0852848
345 2 0.38592 0.713016 0.208968
409 1 0.337844 0.658176 0.0796251
473 1 0.398892 0.596194 0.173335
41 2 0.717863 0.660173 0.0868269
105 2 0.513404 0.728498 0.188257
169 2 0.599572 0.533258 0.0848235
233 2 0.531773 0.615925 0.209378
297 2 0.724043 0.528465 0.0810108
361 2 0.655208 0.716895 0.208114
425 1 0.590294 0.657814 0.0803645
489 1 0.642548 0.591246 0.176838
57 2 0.932971 0.647216 0.0833037
121 2 0.764022 0.729473 0.189399
185 2 0.844834 0.530959 0.0850541
249 2 0.787162 0.61407 0.212987
313 2 0.919178 0.533177 0.0835047
377 2 0.88635 0.721334 0.192686
441 1 0.843393 0.656794 0.0880552
505 1 0.921008 0.580459 0.191151
13 2 0.219656 0.889109 0.0832146
77 2 0.0660796 0.9185 0.181912
141 2 0.109967 0.79906 0.0840158
205 2 0.0703562 0.837607 0.206135
269 2 0.214956 0.796976 0.0795459
333 2 0.167898 0.928482 0.199259
397 1 0.0974028 0.905456 0.0934344
461 1 0.153642 0.850595 0.179832
29 2 0.465001 0.885661 0.0868846
93 2 0.269305 0.919694 0.181075
157 2 0.348729 0.792269 0.0840917
221 2 0.284896 0.853442 0.223769
285 2 0.468079 0.791953 0.0797238
349 2 0.400772 0.93006 0.200205
413 1 0.33434 0.918448 0.0806456
477 1 0.40589 0.852626 0.166368
45 2 0.709834 0.886624 0.08276
109 2 0.521289 0.917479 0.182069
173 2 0.602045 0.801633 0.0824479
237 2 0.53514 0.855462 0.221002
301 2 0.720732 0.793795 0.0788932
365 2 0.650553 0.932577 0.198445
429 1 0.588767 0.918689 0.0832068
493 1 0.655813 0.849107 0.169938
61 2 0.923627 0.870088 0.0885426
125 2 0.774302 0.921524 0.18239
189 2 0.840987 0.798585 0.0809421
253 2 0.796789 0.855743 0.220119
317 2 0.913242 0.796158 0.0797471
381 2 0.877748 0.93045 0.19284
445 1 0.83484 0.920563 0.0987608
509 1 0.928237 0.839738 0.181753
2 2 0.216154 0.15948 0.317366
66 2 0.0762373 0.216983 0.439444
130 2 0.107395 0.0590112 0.322662
194 2 0.0646168 0.100181 0.445414
258 2 0.217633 0.0714403 0.309526
322 2 0.155242 0.216393 0.442091
386 1 0.0897713 0.154154 0.309354
450 1 0.153361 0.102053 0.435692
18 2 0.467005 0.158551 0.31966
82 2 0.265222 0.235272 0.444348
146 2 0.341455 0.0641294 0.323613
210 2 0.290538 0.0983578 0.430998
274 2 0.471742 0.0654011 0.307902
338 2 0.391197 0.218016 0.442292
402 1 0.346171 0.155654 0.297106
466 1 0.412726 0.108301 0.444926
34 2 0.716676 0.160913 0.319838
98 2 0.514328 0.23528 0.444709
162 2 0.590945 0.063255 0.322273
226 2 0.536736 0.0971935 0.433765
290 2 0.714764 0.073028 0.310979
354 2 0.648902 0.222576 0.445812
418 1 0.594407 0.152196 0.294247
482 1 0.666691 0.102504 0.446026
50 2 0.936419 0.174494 0.320321
114 2 0.764517 0.23379 0.445051
178 2 0.829008 0.0639129 0.32132
242 2 0.79206 0.104309 0.433301
306 2 0.91672 0.0654296 0.314285
370 2 0.883225 0.229408 0.434523
434 1 0.842036 0.161896 0.299497
498 1 0.919533 0.0981928 0.431622
6 2 0.218252 0.394568 0.316776
70 2 0.0709974 0.465521 0.432844
134 2 0.102583 0.29928 0.305311
198 2 0.0614683 0.344114 0.445552
262 2 0.227502 0.264391 0.301371
326 2 0.158239 0.467818 0.445258
390 1 0.0835133 0.406816 0.311892
454 1 0.157413 0.338792 0.440082
22 2 0.471063 0.393148 0.316406
86 2 0.265645 0.484146 0.446496
150 2 0.347375 0.277389 0.31391
214 2 0.280133 0.352869 0.44553
278 2 0.488847 0.259708 0.303856
342 2 0.392036 0.4725 0.440845
406 1 0.35648 0.40846 0.299907
470 1 0.405223 0.347532 0.448443
38 2 0.717637 0.393619 0.315772
102 2 0.515015 0.487677 0.439743
166 2 0.606206 0.27858 0.316306
230 2 0.52791 0.360039 0.44369
294 2 0.738776 0.262263 0.309585
358 2 0.649114 0.473339 0.446497
422 1 0.599336 0.40665 0.290754
486 1 0.65455 0.348475 0.449413
54 2 0.93425 0.412016 0.319142
118 2 0.765733 0.485659 0.444175
182 2 0.846735 0.27837 0.319237
246 2 0.782625 0.361568 0.441564
310 2 0.93113 0.261357 0.30676
374 2 0.875099 0.478211 0.43337
438 1 0.852288 0.409626 0.289388
502 1 0.915683 0.332867 0.448232
10 2 0.219958 0.651619 0.31416
74 2 0.066784 0.716288 0.436375
138 2 0.105702 0.548282 0.305265
202 2 0.0624828 0.594575 0.446275
266 2 0.2324 0.514491 0.30508
330 2 0.157574 0.714367 0.450743
394 1 0.0838628 0.655353 0.316354
458 1 0.156072 0.591064 0.441207
26 2 0.471758 0.65346 0.313957
90 2 0.260994 0.733654 0.44609
154 2 0.344344 0.527133 0.314188
218 2 0.278597 0.610166 0.445632
282 2 0.484997 0.512957 0.303372
346 2 0.389194 0.717576 0.447666
410 1 0.356912 0.650457 0.302838
474 1 0.402967 0.594027 0.450471
42 2 0.719907 0.654732 0.317356
106 2 0.515802 0.733036 0.444486
170 2 0.609861 0.531301 0.319327
234 2 0.527117 0.609653 0.441088
298 2 0.73733 0.518374 0.303135
362 2 0.657701 0.720486 0.44471
426 1 0.587936 0.638965 0.303084
490 1 0.650524 0.593457 0.446176
58 2 0.933095 0.655932 0.320946
122 2 0.766085 0.733659 0.442528
186 2 0.849547 0.53114 0.322084
250 2 0.788303 0.614112 0.442219
314 2 0.933962 0.516603 0.306814
378 2 0.870492 0.718872 0.432798
442 1 0.845748 0.650468 0.291446
506 1 0.918754 0.580888 0.443113
14 2 0.214179 0.875689 0.306749
78 2 0.0663611 0.920281 0.433195
142 2 0.114714 0.797165 0.304882
206 2 0.0701468 0.826241 0.445833
270 2 0.221321 0.77617 0.31059
334 2 0.182068 0.932158 0.44624
398 1 0.0882587 0.918181 0.308924
462 1 0.156772 0.843934 0.430402
30 2 0.466504 0.874139 0.309425
94 2 0.268023 0.924996 0.430481
158 2 0.352696 0.777887 0.308346
222 2 0.281436 0.844724 0.448565
286 2 0.48581 0.764003 0.303502
350 2 0.402971 0.936684 0.436438
414 1 0.348682 0.923377 0.315438
478 1 0.415187 0.846526 0.440623
46 2 0.709712 0.874652 0.309874
110 2 0.522738 0.923967 0.428327
174 2 0.617649 0.786666 0.319697
238 2 0.528581 0.844074 0.444446
302 2 0.740103 0.77262 0.302
366 2 0.650762 0.937432 0.4394
430 1 0.590879 0.923918 0.3093
494 1 0.642565 0.851262 0.427478
62 2 0.933514 0.867416 0.315423
126 2 0.779514 0.927511 0.430255
190 2 0.850928 0.788977 0.326745
254 2 0.792077 0.849205 0.446294
318 2 0.924062 0.774894 0.308084
382 2 0.864558 0.928244 0.436235
446 1 0.839131 0.927556 0.301199
510 1 0.926926 0.838356 0.43148
3 2 0.220153 0.159187 0.563818
67 2 0.0746674 0.217049 0.682981
131 2 0.108292 0.0637584 0.566848
195 2 0.0691696 0.102795 0.690574
259 2 0.218738 0.0783282 0.560386
323 2 0.160902 0.217674 0.692057
387 1 0.0901452 0.156703 0.557511
451 1 0.156827 0.107795 0.681612
19 2 0.471786 0.161566 0.563893
83 2 0.263161 0.236198 0.684816
147 2 0.346191 0.064149 0.574499
211 2 0.290326 0.0996018 0.682577
275 2 0.465813 0.0600148 0.553989
339 2 0.390485 0.218737 0.678401
403 1 0.342671 0.156229 0.557138
467 1 0.413273 0.108738 0.695007
35 2 0.718408 0.162028 0.569546
99 2 0.513264 0.235195 0.678364
163 2 0.595459 0.0628468 0.569836
227 2 0.536496 0.0996068 0.680523
291 2 0.721251 0.0683694 0.558856
355 2 0.652408 0.221148 0.67972
419 1 0.591836 0.151825 0.548162
483 1 0.671719 0.11022 0.694461
51 2 0.935655 0.171042 0.572356
115 2 0.7677 0.235413 0.683854
179 2 0.828401 0.0671779 0.57079
243 2 0.793618 0.105511 0.685738
307 2 0.919153 0.0654124 0.558892
371 2 0.884276 0.229783 0.689624
435 1 0.845851 0.157725 0.544921
499 1 0.921349 0.0954201 0.683409
7 2 0.219681 0.391942 0.557158
71 2 0.0649395 0.462657 0.684445
135 2 0.10488 0.300038 0.556568
199 2 0.0606944 0.34614 0.694379
263 2 0.23342 0.267766 0.565552
327 2 0.16327 0.469236 0.69079
391 1 0.0837854 0.406602 0.563967
455 1 0.157711 0.345169 0.687295
23 2 0.474986 0.391652 0.5557
87 2 0.26398 0.48803 0.678217
151 2 0.344541 0.270831 0.561547
215 2 0.281659 0.351547 0.680564
279 2 0.486306 0.270763 0.560701
343 2 0.388355 0.469247 0.674684
407 1 0.349606 0.403548 0.563972
471 1 0.405935 0.34588 0.706421
39 2 0.721018 0.392068 0.561238
103 2 0.512897 0.488862 0.676396
167 2 0.612476 0.27401 0.560592
231 2 0.528662 0.352311 0.679823
295 2 0.7361 0.262258 0.555412
359 2 0.65209 0.471128 0.675168
423 1 0.595598 0.396253 0.561286
487 1 0.654158 0.344043 0.70415
55 2 0.933167 0.406619 0.566267
119 2 0.764503 0.49001 0.679616
183 2 0.846863 0.276063 0.566599
247 2 0.786702 0.354743 0.68494
311 2 0.926908 0.260754 0.556035
375 2 0.873931 0.478712 0.683856
439 1 0.848251 0.407839 0.547341
503 1 0.913497 0.340278 0.698138
11 2 0.225743 0.650769 0.555752
75 2 0.0696499 0.715395 0.68538
139 2 0.10795 0.546162 0.555811
203 2 0.0620784 0.594669 0.690888
267 2 0.232444 0.515898 0.566944
331 2 0.160586 0.716069 0.696833
395 1 0.0846581 0.66369 0.559517
459 1 0.156834 0.593391 0.68221
27 2 0.476328 0.650055 0.553261
91 2 0.260089 0.734456 0.686824
155 2 0.360609 0.52602 0.552994
219 2 0.283487 0.61511 0.680743
283 2 0.484052 0.514063 0.563627
347 2 0.386594 0.714426 0.680887
411 1 0.348186 0.651837 0.564969
475 1 0.406558 0.593618 0.705567
43 2 0.71935 0.641887 0.559231
107 2 0.511195 0.734106 0.683036
171 2 0.610209 0.525191 0.555002
235 2 0.53066 0.612855 0.674788
299 2 0.730263 0.513661 0.562665
363 2 0.652998 0.712569 0.679078
427 1 0.597443 0.650592 0.565257
491 1 0.656017 0.5961 0.704764
59 2 0.93297 0.652924 0.567561
123 2 0.773551 0.734234 0.69464
187 2 0.845582 0.524203 0.559339
251 2 0.790392 0.616783 0.677742
315 2 0.927568 0.513642 0.553475
379 2 0.87079 0.722193 0.688159
443 1 0.845924 0.646812 0.552508
507 1 0.917664 0.583842 0.695412
15 2 0.218609 0.876815 0.561136
79 2 0.0653125 0.921739 0.68367
143 2 0.115327 0.796509 0.558598
207 2 0.068438 0.827308 0.697114
271 2 0.224469 0.770505 0.564742
335 2 0.180146 0.935327 0.698341
399 1 0.0931969 0.916998 0.56102
463 1 0.15644 0.843208 0.678373
31 2 0.466761 0.870003 0.559988
95 2 0.268834 0.924864 0.673026
159 2 0.366145 0.777726 0.551772
223 2 0.283634 0.843962 0.695547
287 2 0.485999 0.764217 0.565806
351 2 0.406445 0.936795 0.691178
415 1 0.339386 0.923228 0.564874
479 1 0.405881 0.846226 0.685059
47 2 0.709095 0.872953 0.559841
111 2 0.519979 0.924757 0.677229
175 2 0.616103 0.778025 0.555191
239 2 0.531046 0.842017 0.687515
303 2 0.736079 0.768653 0.5636
367 2 0.651633 0.937716 0.690684
431 1 0.589093 0.922616 0.564163
495 1 0.645736 0.843686 0.686778
63 2 0.935305 0.870039 0.56209
127 2 0.778529 0.930167 0.682483
191 2 0.8475 0.783189 0.562124
255 2 0.791062 0.847308 0.688761
319 2 0.924903 0.777614 0.55963
383 2 0.867568 0.930957 0.685084
447 1 0.836223 0.929061 0.551305
511 1 0.925998 0.840063 0.679067
4 2 0.22423 0.144435 0.812422
68 2 0.0882235 0.218807 0.909359