LAMMPS data file. CGCMM style. atom_style full generated by VMD/TopoTools v1.5 on Thu Dec 18 14:38:28 MSK 2025
 512 atoms
 1344 bonds
 0 angles
 0 dihedrals
 0 impropers
 2 atom types
 1 bond types
 0 angle types
 0 dihedral types
 0 improper types
 -0.040000 16.160001  xlo xhi
 -0.040000 16.160001  ylo yhi
 -0.040001 16.160000  zlo zhi

# Pair Coeffs
#
# 1  Co
# 2  Ta

# Bond Coeffs
#
# 1  

 Masses

 1 58.933201 # Co
 2 180.947906 # Ta

 Atoms

1 1 2 0.000000 3.356990 2.683980 1.007500 # Ta 
2 1 2 0.000000 3.356990 2.683980 5.037500 # Ta 
3 1 2 0.000000 3.356990 2.683980 9.067500 # Ta 
4 1 2 0.000000 3.356990 2.683980 13.097500 # Ta 
5 1 2 0.000000 3.356990 6.713980 1.007500 # Ta 
6 1 2 0.000000 3.356990 6.713980 5.037500 # Ta 
7 1 2 0.000000 3.356990 6.713980 9.067500 # Ta 
8 1 2 0.000000 3.356990 6.713980 13.097500 # Ta 
9 1 2 0.000000 3.356990 10.743980 1.007500 # Ta 
10 1 2 0.000000 3.356990 10.743980 5.037500 # Ta 
11 1 2 0.000000 3.356990 10.743980 9.067500 # Ta 
12 1 2 0.000000 3.356990 10.743980 13.097500 # Ta 
13 1 2 0.000000 3.356990 14.773980 1.007500 # Ta 
14 1 2 0.000000 3.356990 14.773980 5.037500 # Ta 
15 1 2 0.000000 3.356990 14.773980 9.067500 # Ta 
16 1 2 0.000000 3.356990 14.773980 13.097500 # Ta 
17 1 2 0.000000 7.386990 2.683980 1.007500 # Ta 
18 1 2 0.000000 7.386990 2.683980 5.037500 # Ta 
19 1 2 0.000000 7.386990 2.683980 9.067500 # Ta 
20 1 2 0.000000 7.386990 2.683980 13.097500 # Ta 
21 1 2 0.000000 7.386990 6.713980 1.007500 # Ta 
22 1 2 0.000000 7.386990 6.713980 5.037500 # Ta 
23 1 2 0.000000 7.386990 6.713980 9.067500 # Ta 
24 1 2 0.000000 7.386990 6.713980 13.097500 # Ta 
25 1 2 0.000000 7.386990 10.743980 1.007500 # Ta 
26 1 2 0.000000 7.386990 10.743980 5.037500 # Ta 
27 1 2 0.000000 7.386990 10.743980 9.067500 # Ta 
28 1 2 0.000000 7.386990 10.743980 13.097500 # Ta 
29 1 2 0.000000 7.386990 14.773980 1.007500 # Ta 
30 1 2 0.000000 7.386990 14.773980 5.037500 # Ta 
31 1 2 0.000000 7.386990 14.773980 9.067500 # Ta 
32 1 2 0.000000 7.386990 14.773980 13.097500 # Ta 
33 1 2 0.000000 11.416990 2.683980 1.007500 # Ta 
34 1 2 0.000000 11.416990 2.683980 5.037500 # Ta 
35 1 2 0.000000 11.416990 2.683980 9.067500 # Ta 
36 1 2 0.000000 11.416990 2.683980 13.097500 # Ta 
37 1 2 0.000000 11.416990 6.713980 1.007500 # Ta 
38 1 2 0.000000 11.416990 6.713980 5.037500 # Ta 
39 1 2 0.000000 11.416990 6.713980 9.067500 # Ta 
40 1 2 0.000000 11.416990 6.713980 13.097500 # Ta 
41 1 2 0.000000 11.416990 10.743980 1.007500 # Ta 
42 1 2 0.000000 11.416990 10.743980 5.037500 # Ta 
43 1 2 0.000000 11.416990 10.743980 9.067500 # Ta 
44 1 2 0.000000 11.416990 10.743980 13.097500 # Ta 
45 1 2 0.000000 11.416990 14.773980 1.007500 # Ta 
46 1 2 0.000000 11.416990 14.773980 5.037500 # Ta 
47 1 2 0.000000 11.416990 14.773980 9.067500 # Ta 
48 1 2 0.000000 11.416990 14.773980 13.097500 # Ta 
49 1 2 0.000000 15.446990 2.683980 1.007500 # Ta 
50 1 2 0.000000 15.446990 2.683980 5.037500 # Ta 
51 1 2 0.000000 15.446990 2.683980 9.067500 # Ta 
52 1 2 0.000000 15.446990 2.683980 13.097500 # Ta 
53 1 2 0.000000 15.446990 6.713980 1.007500 # Ta 
54 1 2 0.000000 15.446990 6.713980 5.037500 # Ta 
55 1 2 0.000000 15.446990 6.713980 9.067500 # Ta 
56 1 2 0.000000 15.446990 6.713980 13.097500 # Ta 
57 1 2 0.000000 15.446990 10.743980 1.007500 # Ta 
58 1 2 0.000000 15.446990 10.743980 5.037500 # Ta 
59 1 2 0.000000 15.446990 10.743980 9.067500 # Ta 
60 1 2 0.000000 15.446990 10.743980 13.097500 # Ta 
61 1 2 0.000000 15.446990 14.773980 1.007500 # Ta 
62 1 2 0.000000 15.446990 14.773980 5.037500 # Ta 
63 1 2 0.000000 15.446990 14.773980 9.067500 # Ta 
64 1 2 0.000000 15.446990 14.773980 13.097500 # Ta 
65 1 2 0.000000 0.673010 3.356990 3.022500 # Ta 
66 1 2 0.000000 0.673010 3.356990 7.052500 # Ta 
67 1 2 0.000000 0.673010 3.356990 11.082500 # Ta 
68 1 2 0.000000 0.673010 3.356990 15.112500 # Ta 
69 1 2 0.000000 0.673010 7.386990 3.022500 # Ta 
70 1 2 0.000000 0.673010 7.386990 7.052500 # Ta 
71 1 2 0.000000 0.673010 7.386990 11.082500 # Ta 
72 1 2 0.000000 0.673010 7.386990 15.112500 # Ta 
73 1 2 0.000000 0.673010 11.416990 3.022500 # Ta 
74 1 2 0.000000 0.673010 11.416990 7.052500 # Ta 
75 1 2 0.000000 0.673010 11.416990 11.082500 # Ta 
76 1 2 0.000000 0.673010 11.416990 15.112500 # Ta 
77 1 2 0.000000 0.673010 15.446990 3.022500 # Ta 
78 1 2 0.000000 0.673010 15.446990 7.052500 # Ta 
79 1 2 0.000000 0.673010 15.446990 11.082500 # Ta 
80 1 2 0.000000 0.673010 15.446990 15.112500 # Ta 
81 1 2 0.000000 4.703010 3.356990 3.022500 # Ta 
82 1 2 0.000000 4.703010 3.356990 7.052500 # Ta 
83 1 2 0.000000 4.703010 3.356990 11.082500 # Ta 
84 1 2 0.000000 4.703010 3.356990 15.112500 # Ta 
85 1 2 0.000000 4.703010 7.386990 3.022500 # Ta 
86 1 2 0.000000 4.703010 7.386990 7.052500 # Ta 
87 1 2 0.000000 4.703010 7.386990 11.082500 # Ta 
88 1 2 0.000000 4.703010 7.386990 15.112500 # Ta 
89 1 2 0.000000 4.703010 11.416990 3.022500 # Ta 
90 1 2 0.000000 4.703010 11.416990 7.052500 # Ta 
91 1 2 0.000000 4.703010 11.416990 11.082500 # Ta 
92 1 2 0.000000 4.703010 11.416990 15.112500 # Ta 
93 1 2 0.000000 4.703010 15.446990 3.022500 # Ta 
94 1 2 0.000000 4.703010 15.446990 7.052500 # Ta 
95 1 2 0.000000 4.703010 15.446990 11.082500 # Ta 
96 1 2 0.000000 4.703010 15.446990 15.112500 # Ta 
97 1 2 0.000000 8.733010 3.356990 3.022500 # Ta 
98 1 2 0.000000 8.733010 3.356990 7.052500 # Ta 
99 1 2 0.000000 8.733010 3.356990 11.082500 # Ta 
100 1 2 0.000000 8.733010 3.356990 15.112500 # Ta 
101 1 2 0.000000 8.733010 7.386990 3.022500 # Ta 
102 1 2 0.000000 8.733010 7.386990 7.052500 # Ta 
103 1 2 0.000000 8.733010 7.386990 11.082500 # Ta 
104 1 2 0.000000 8.733010 7.386990 15.112500 # Ta 
105 1 2 0.000000 8.733010 11.416990 3.022500 # Ta 
106 1 2 0.000000 8.733010 11.416990 7.052500 # Ta 
107 1 2 0.000000 8.733010 11.416990 11.082500 # Ta 
108 1 2 0.000000 8.733010 11.416990 15.112500 # Ta 
109 1 2 0.000000 8.733010 15.446990 3.022500 # Ta 
110 1 2 0.000000 8.733010 15.446990 7.052500 # Ta 
111 1 2 0.000000 8.733010 15.446990 11.082500 # Ta 
112 1 2 0.000000 8.733010 15.446990 15.112500 # Ta 
113 1 2 0.000000 12.763010 3.356990 3.022500 # Ta 
114 1 2 0.000000 12.763010 3.356990 7.052500 # Ta 
115 1 2 0.000000 12.763010 3.356990 11.082500 # Ta 
116 1 2 0.000000 12.763010 3.356990 15.112500 # Ta 
117 1 2 0.000000 12.763010 7.386990 3.022500 # Ta 
118 1 2 0.000000 12.763010 7.386990 7.052500 # Ta 
119 1 2 0.000000 12.763010 7.386990 11.082500 # Ta 
120 1 2 0.000000 12.763010 7.386990 15.112500 # Ta 
121 1 2 0.000000 12.763010 11.416990 3.022500 # Ta 
122 1 2 0.000000 12.763010 11.416990 7.052500 # Ta 
123 1 2 0.000000 12.763010 11.416990 11.082500 # Ta 
124 1 2 0.000000 12.763010 11.416990 15.112500 # Ta 
125 1 2 0.000000 12.763010 15.446990 3.022500 # Ta 
126 1 2 0.000000 12.763010 15.446990 7.052500 # Ta 
127 1 2 0.000000 12.763010 15.446990 11.082500 # Ta 
128 1 2 0.000000 12.763010 15.446990 15.112500 # Ta 
129 1 2 0.000000 1.346020 0.673010 1.007500 # Ta 
130 1 2 0.000000 1.346020 0.673010 5.037500 # Ta 
131 1 2 0.000000 1.346020 0.673010 9.067500 # Ta 
132 1 2 0.000000 1.346020 0.673010 13.097500 # Ta 
133 1 2 0.000000 1.346020 4.703010 1.007500 # Ta 
134 1 2 0.000000 1.346020 4.703010 5.037500 # Ta 
135 1 2 0.000000 1.346020 4.703010 9.067500 # Ta 
136 1 2 0.000000 1.346020 4.703010 13.097500 # Ta 
137 1 2 0.000000 1.346020 8.733010 1.007500 # Ta 
138 1 2 0.000000 1.346020 8.733010 5.037500 # Ta 
139 1 2 0.000000 1.346020 8.733010 9.067500 # Ta 
140 1 2 0.000000 1.346020 8.733010 13.097500 # Ta 
141 1 2 0.000000 1.346020 12.763010 1.007500 # Ta 
142 1 2 0.000000 1.346020 12.763010 5.037500 # Ta 
143 1 2 0.000000 1.346020 12.763010 9.067500 # Ta 
144 1 2 0.000000 1.346020 12.763010 13.097500 # Ta 
145 1 2 0.000000 5.376020 0.673010 1.007500 # Ta 
146 1 2 0.000000 5.376020 0.673010 5.037500 # Ta 
147 1 2 0.000000 5.376020 0.673010 9.067500 # Ta 
148 1 2 0.000000 5.376020 0.673010 13.097500 # Ta 
149 1 2 0.000000 5.376020 4.703010 1.007500 # Ta 
150 1 2 0.000000 5.376020 4.703010 5.037500 # Ta 
151 1 2 0.000000 5.376020 4.703010 9.067500 # Ta 
152 1 2 0.000000 5.376020 4.703010 13.097500 # Ta 
153 1 2 0.000000 5.376020 8.733010 1.007500 # Ta 
154 1 2 0.000000 5.376020 8.733010 5.037500 # Ta 
155 1 2 0.000000 5.376020 8.733010 9.067500 # Ta 
156 1 2 0.000000 5.376020 8.733010 13.097500 # Ta 
157 1 2 0.000000 5.376020 12.763010 1.007500 # Ta 
158 1 2 0.000000 5.376020 12.763010 5.037500 # Ta 
159 1 2 0.000000 5.376020 12.763010 9.067500 # Ta 
160 1 2 0.000000 5.376020 12.763010 13.097500 # Ta 
161 1 2 0.000000 9.406020 0.673010 1.007500 # Ta 
162 1 2 0.000000 9.406020 0.673010 5.037500 # Ta 
163 1 2 0.000000 9.406020 0.673010 9.067500 # Ta 
164 1 2 0.000000 9.406020 0.673010 13.097500 # Ta 
165 1 2 0.000000 9.406020 4.703010 1.007500 # Ta 
166 1 2 0.000000 9.406020 4.703010 5.037500 # Ta 
167 1 2 0.000000 9.406020 4.703010 9.067500 # Ta 
168 1 2 0.000000 9.406020 4.703010 13.097500 # Ta 
169 1 2 0.000000 9.406020 8.733010 1.007500 # Ta 
170 1 2 0.000000 9.406020 8.733010 5.037500 # Ta 
171 1 2 0.000000 9.406020 8.733010 9.067500 # Ta 
172 1 2 0.000000 9.406020 8.733010 13.097500 # Ta 
173 1 2 0.000000 9.406020 12.763010 1.007500 # Ta 
174 1 2 0.000000 9.406020 12.763010 5.037500 # Ta 
175 1 2 0.000000 9.406020 12.763010 9.067500 # Ta 
176 1 2 0.000000 9.406020 12.763010 13.097500 # Ta 
177 1 2 0.000000 13.436020 0.673010 1.007500 # Ta 
178 1 2 0.000000 13.436020 0.673010 5.037500 # Ta 
179 1 2 0.000000 13.436020 0.673010 9.067500 # Ta 
180 1 2 0.000000 13.436020 0.673010 13.097500 # Ta 
181 1 2 0.000000 13.436020 4.703010 1.007500 # Ta 
182 1 2 0.000000 13.436020 4.703010 5.037500 # Ta 
183 1 2 0.000000 13.436020 4.703010 9.067500 # Ta 
184 1 2 0.000000 13.436020 4.703010 13.097500 # Ta 
185 1 2 0.000000 13.436020 8.733010 1.007500 # Ta 
186 1 2 0.000000 13.436020 8.733010 5.037500 # Ta 
187 1 2 0.000000 13.436020 8.733010 9.067500 # Ta 
188 1 2 0.000000 13.436020 8.733010 13.097500 # Ta 
189 1 2 0.000000 13.436020 12.763010 1.007500 # Ta 
190 1 2 0.000000 13.436020 12.763010 5.037500 # Ta 
191 1 2 0.000000 13.436020 12.763010 9.067500 # Ta 
192 1 2 0.000000 13.436020 12.763010 13.097500 # Ta 
193 1 2 0.000000 0.673010 1.346020 3.022500 # Ta 
194 1 2 0.000000 0.673010 1.346020 7.052500 # Ta 
195 1 2 0.000000 0.673010 1.346020 11.082500 # Ta 
196 1 2 0.000000 0.673010 1.346020 15.112500 # Ta 
197 1 2 0.000000 0.673010 5.376020 3.022500 # Ta 
198 1 2 0.000000 0.673010 5.376020 7.052500 # Ta 
199 1 2 0.000000 0.673010 5.376020 11.082500 # Ta 
200 1 2 0.000000 0.673010 5.376020 15.112500 # Ta 
201 1 2 0.000000 0.673010 9.406020 3.022500 # Ta 
202 1 2 0.000000 0.673010 9.406020 7.052500 # Ta 
203 1 2 0.000000 0.673010 9.406020 11.082500 # Ta 
204 1 2 0.000000 0.673010 9.406020 15.112500 # Ta 
205 1 2 0.000000 0.673010 13.436020 3.022500 # Ta 
206 1 2 0.000000 0.673010 13.436020 7.052500 # Ta 
207 1 2 0.000000 0.673010 13.436020 11.082500 # Ta 
208 1 2 0.000000 0.673010 13.436020 15.112500 # Ta 
209 1 2 0.000000 4.703010 1.346020 3.022500 # Ta 
210 1 2 0.000000 4.703010 1.346020 7.052500 # Ta 
211 1 2 0.000000 4.703010 1.346020 11.082500 # Ta 
212 1 2 0.000000 4.703010 1.346020 15.112500 # Ta 
213 1 2 0.000000 4.703010 5.376020 3.022500 # Ta 
214 1 2 0.000000 4.703010 5.376020 7.052500 # Ta 
215 1 2 0.000000 4.703010 5.376020 11.082500 # Ta 
216 1 2 0.000000 4.703010 5.376020 15.112500 # Ta 
217 1 2 0.000000 4.703010 9.406020 3.022500 # Ta 
218 1 2 0.000000 4.703010 9.406020 7.052500 # Ta 
219 1 2 0.000000 4.703010 9.406020 11.082500 # Ta 
220 1 2 0.000000 4.703010 9.406020 15.112500 # Ta 
221 1 2 0.000000 4.703010 13.436020 3.022500 # Ta 
222 1 2 0.000000 4.703010 13.436020 7.052500 # Ta 
223 1 2 0.000000 4.703010 13.436020 11.082500 # Ta 
224 1 2 0.000000 4.703010 13.436020 15.112500 # Ta 
225 1 2 0.000000 8.733010 1.346020 3.022500 # Ta 
226 1 2 0.000000 8.733010 1.346020 7.052500 # Ta 
227 1 2 0.000000 8.733010 1.346020 11.082500 # Ta 
228 1 2 0.000000 8.733010 1.346020 15.112500 # Ta 
229 1 2 0.000000 8.733010 5.376020 3.022500 # Ta 
230 1 2 0.000000 8.733010 5.376020 7.052500 # Ta 
231 1 2 0.000000 8.733010 5.376020 11.082500 # Ta 
232 1 2 0.000000 8.733010 5.376020 15.112500 # Ta 
233 1 2 0.000000 8.733010 9.406020 3.022500 # Ta 
234 1 2 0.000000 8.733010 9.406020 7.052500 # Ta 
235 1 2 0.000000 8.733010 9.406020 11.082500 # Ta 
236 1 2 0.000000 8.733010 9.406020 15.112500 # Ta 
237 1 2 0.000000 8.733010 13.436020 3.022500 # Ta 
238 1 2 0.000000 8.733010 13.436020 7.052500 # Ta 
239 1 2 0.000000 8.733010 13.436020 11.082500 # Ta 
240 1 2 0.000000 8.733010 13.436020 15.112500 # Ta 
241 1 2 0.000000 12.763010 1.346020 3.022500 # Ta 
242 1 2 0.000000 12.763010 1.346020 7.052500 # Ta 
243 1 2 0.000000 12.763010 1.346020 11.082500 # Ta 
244 1 2 0.000000 12.763010 1.346020 15.112500 # Ta 
245 1 2 0.000000 12.763010 5.376020 3.022500 # Ta 
246 1 2 0.000000 12.763010 5.376020 7.052500 # Ta 
247 1 2 0.000000 12.763010 5.376020 11.082500 # Ta 
248 1 2 0.000000 12.763010 5.376020 15.112500 # Ta 
249 1 2 0.000000 12.763010 9.406020 3.022500 # Ta 
250 1 2 0.000000 12.763010 9.406020 7.052500 # Ta 
251 1 2 0.000000 12.763010 9.406020 11.082500 # Ta 
252 1 2 0.000000 12.763010 9.406020 15.112500 # Ta 
253 1 2 0.000000 12.763010 13.436020 3.022500 # Ta 
254 1 2 0.000000 12.763010 13.436020 7.052500 # Ta 
255 1 2 0.000000 12.763010 13.436020 11.082500 # Ta 
256 1 2 0.000000 12.763010 13.436020 15.112500 # Ta 
257 1 2 0.000000 3.356990 0.673010 1.007500 # Ta 
258 1 2 0.000000 3.356990 0.673010 5.037500 # Ta 
259 1 2 0.000000 3.356990 0.673010 9.067500 # Ta 
260 1 2 0.000000 3.356990 0.673010 13.097500 # Ta 
261 1 2 0.000000 3.356990 4.703010 1.007500 # Ta 
262 1 2 0.000000 3.356990 4.703010 5.037500 # Ta 
263 1 2 0.000000 3.356990 4.703010 9.067500 # Ta 
264 1 2 0.000000 3.356990 4.703010 13.097500 # Ta 
265 1 2 0.000000 3.356990 8.733010 1.007500 # Ta 
266 1 2 0.000000 3.356990 8.733010 5.037500 # Ta 
267 1 2 0.000000 3.356990 8.733010 9.067500 # Ta 
268 1 2 0.000000 3.356990 8.733010 13.097500 # Ta 
269 1 2 0.000000 3.356990 12.763010 1.007500 # Ta 
270 1 2 0.000000 3.356990 12.763010 5.037500 # Ta 
271 1 2 0.000000 3.356990 12.763010 9.067500 # Ta 
272 1 2 0.000000 3.356990 12.763010 13.097500 # Ta 
273 1 2 0.000000 7.386990 0.673010 1.007500 # Ta 
274 1 2 0.000000 7.386990 0.673010 5.037500 # Ta 
275 1 2 0.000000 7.386990 0.673010 9.067500 # Ta 
276 1 2 0.000000 7.386990 0.673010 13.097500 # Ta 
277 1 2 0.000000 7.386990 4.703010 1.007500 # Ta 
278 1 2 0.000000 7.386990 4.703010 5.037500 # Ta 
279 1 2 0.000000 7.386990 4.703010 9.067500 # Ta 
280 1 2 0.000000 7.386990 4.703010 13.097500 # Ta 
281 1 2 0.000000 7.386990 8.733010 1.007500 # Ta 
282 1 2 0.000000 7.386990 8.733010 5.037500 # Ta 
283 1 2 0.000000 7.386990 8.733010 9.067500 # Ta 
284 1 2 0.000000 7.386990 8.733010 13.097500 # Ta 
285 1 2 0.000000 7.386990 12.763010 1.007500 # Ta 
286 1 2 0.000000 7.386990 12.763010 5.037500 # Ta 
287 1 2 0.000000 7.386990 12.763010 9.067500 # Ta 
288 1 2 0.000000 7.386990 12.763010 13.097500 # Ta 
289 1 2 0.000000 11.416990 0.673010 1.007500 # Ta 
290 1 2 0.000000 11.416990 0.673010 5.037500 # Ta 
291 1 2 0.000000 11.416990 0.673010 9.067500 # Ta 
292 1 2 0.000000 11.416990 0.673010 13.097500 # Ta 
293 1 2 0.000000 11.416990 4.703010 1.007500 # Ta 
294 1 2 0.000000 11.416990 4.703010 5.037500 # Ta 
295 1 2 0.000000 11.416990 4.703010 9.067500 # Ta 
296 1 2 0.000000 11.416990 4.703010 13.097500 # Ta 
297 1 2 0.000000 11.416990 8.733010 1.007500 # Ta 
298 1 2 0.000000 11.416990 8.733010 5.037500 # Ta 
299 1 2 0.000000 11.416990 8.733010 9.067500 # Ta 
300 1 2 0.000000 11.416990 8.733010 13.097500 # Ta 
301 1 2 0.000000 11.416990 12.763010 1.007500 # Ta 
302 1 2 0.000000 11.416990 12.763010 5.037500 # Ta 
303 1 2 0.000000 11.416990 12.763010 9.067500 # Ta 
304 1 2 0.000000 11.416990 12.763010 13.097500 # Ta 
305 1 2 0.000000 15.446990 0.673010 1.007500 # Ta 
306 1 2 0.000000 15.446990 0.673010 5.037500 # Ta 
307 1 2 0.000000 15.446990 0.673010 9.067500 # Ta 
308 1 2 0.000000 15.446990 0.673010 13.097500 # Ta 
309 1 2 0.000000 15.446990 4.703010 1.007500 # Ta 
310 1 2 0.000000 15.446990 4.703010 5.037500 # Ta 
311 1 2 0.000000 15.446990 4.703010 9.067500 # Ta 
312 1 2 0.000000 15.446990 4.703010 13.097500 # Ta 
313 1 2 0.000000 15.446990 8.733010 1.007500 # Ta 
314 1 2 0.000000 15.446990 8.733010 5.037500 # Ta 
315 1 2 0.000000 15.446990 8.733010 9.067500 # Ta 
316 1 2 0.000000 15.446990 8.733010 13.097500 # Ta 
317 1 2 0.000000 15.446990 12.763010 1.007500 # Ta 
318 1 2 0.000000 15.446990 12.763010 5.037500 # Ta 
319 1 2 0.000000 15.446990 12.763010 9.067500 # Ta 
320 1 2 0.000000 15.446990 12.763010 13.097500 # Ta 
321 1 2 0.000000 2.683980 3.356990 3.022500 # Ta 
322 1 2 0.000000 2.683980 3.356990 7.052500 # Ta 
323 1 2 0.000000 2.683980 3.356990 11.082500 # Ta 
324 1 2 0.000000 2.683980 3.356990 15.112500 # Ta 
325 1 2 0.000000 2.683980 7.386990 3.022500 # Ta 
326 1 2 0.000000 2.683980 7.386990 7.052500 # Ta 
327 1 2 0.000000 2.683980 7.386990 11.082500 # Ta 
328 1 2 0.000000 2.683980 7.386990 15.112500 # Ta 
329 1 2 0.000000 2.683980 11.416990 3.022500 # Ta 
330 1 2 0.000000 2.683980 11.416990 7.052500 # Ta 
331 1 2 0.000000 2.683980 11.416990 11.082500 # Ta 
332 1 2 0.000000 2.683980 11.416990 15.112500 # Ta 
333 1 2 0.000000 2.683980 15.446990 3.022500 # Ta 
334 1 2 0.000000 2.683980 15.446990 7.052500 # Ta 
335 1 2 0.000000 2.683980 15.446990 11.082500 # Ta 
336 1 2 0.000000 2.683980 15.446990 15.112500 # Ta 
337 1 2 0.000000 6.713980 3.356990 3.022500 # Ta 
338 1 2 0.000000 6.713980 3.356990 7.052500 # Ta 
339 1 2 0.000000 6.713980 3.356990 11.082500 # Ta 
340 1 2 0.000000 6.713980 3.356990 15.112500 # Ta 
341 1 2 0.000000 6.713980 7.386990 3.022500 # Ta 
342 1 2 0.000000 6.713980 7.386990 7.052500 # Ta 
343 1 2 0.000000 6.713980 7.386990 11.082500 # Ta 
344 1 2 0.000000 6.713980 7.386990 15.112500 # Ta 
345 1 2 0.000000 6.713980 11.416990 3.022500 # Ta 
346 1 2 0.000000 6.713980 11.416990 7.052500 # Ta 
347 1 2 0.000000 6.713980 11.416990 11.082500 # Ta 
348 1 2 0.000000 6.713980 11.416990 15.112500 # Ta 
349 1 2 0.000000 6.713980 15.446990 3.022500 # Ta 
350 1 2 0.000000 6.713980 15.446990 7.052500 # Ta 
351 1 2 0.000000 6.713980 15.446990 11.082500 # Ta 
352 1 2 0.000000 6.713980 15.446990 15.112500 # Ta 
353 1 2 0.000000 10.743980 3.356990 3.022500 # Ta 
354 1 2 0.000000 10.743980 3.356990 7.052500 # Ta 
355 1 2 0.000000 10.743980 3.356990 11.082500 # Ta 
356 1 2 0.000000 10.743980 3.356990 15.112500 # Ta 
357 1 2 0.000000 10.743980 7.386990 3.022500 # Ta 
358 1 2 0.000000 10.743980 7.386990 7.052500 # Ta 
359 1 2 0.000000 10.743980 7.386990 11.082500 # Ta 
360 1 2 0.000000 10.743980 7.386990 15.112500 # Ta 
361 1 2 0.000000 10.743980 11.416990 3.022500 # Ta 
362 1 2 0.000000 10.743980 11.416990 7.052500 # Ta 
363 1 2 0.000000 10.743980 11.416990 11.082500 # Ta 
364 1 2 0.000000 10.743980 11.416990 15.112500 # Ta 
365 1 2 0.000000 10.743980 15.446990 3.022500 # Ta 
366 1 2 0.000000 10.743980 15.446990 7.052500 # Ta 
367 1 2 0.000000 10.743980 15.446990 11.082500 # Ta 
368 1 2 0.000000 10.743980 15.446990 15.112500 # Ta 
369 1 2 0.000000 14.773980 3.356990 3.022500 # Ta 
370 1 2 0.000000 14.773980 3.356990 7.052500 # Ta 
371 1 2 0.000000 14.773980 3.356990 11.082500 # Ta 
372 1 2 0.000000 14.773980 3.356990 15.112500 # Ta 
373 1 2 0.000000 14.773980 7.386990 3.022500 # Ta 
374 1 2 0.000000 14.773980 7.386990 7.052500 # Ta 
375 1 2 0.000000 14.773980 7.386990 11.082500 # Ta 
376 1 2 0.000000 14.773980 7.386990 15.112500 # Ta 
377 1 2 0.000000 14.773980 11.416990 3.022500 # Ta 
378 1 2 0.000000 14.773980 11.416990 7.052500 # Ta 
379 1 2 0.000000 14.773980 11.416990 11.082500 # Ta 
380 1 2 0.000000 14.773980 11.416990 15.112500 # Ta 
381 1 2 0.000000 14.773980 15.446990 3.022500 # Ta 
382 1 2 0.000000 14.773980 15.446990 7.052500 # Ta 
383 1 2 0.000000 14.773980 15.446990 11.082500 # Ta 
384 1 2 0.000000 14.773980 15.446990 15.112500 # Ta 
385 1 1 0.000000 1.343333 2.686667 1.007500 # Co 
386 1 1 0.000000 1.343333 2.686667 5.037500 # Co 
387 1 1 0.000000 1.343333 2.686667 9.067500 # Co 
388 1 1 0.000000 1.343333 2.686667 13.097500 # Co 
389 1 1 0.000000 1.343333 6.716667 1.007500 # Co 
390 1 1 0.000000 1.343333 6.716667 5.037500 # Co 
391 1 1 0.000000 1.343333 6.716667 9.067500 # Co 
392 1 1 0.000000 1.343333 6.716667 13.097500 # Co 
393 1 1 0.000000 1.343333 10.746667 1.007500 # Co 
394 1 1 0.000000 1.343333 10.746667 5.037500 # Co 
395 1 1 0.000000 1.343333 10.746667 9.067500 # Co 
396 1 1 0.000000 1.343333 10.746667 13.097500 # Co 
397 1 1 0.000000 1.343333 14.776667 1.007500 # Co 
398 1 1 0.000000 1.343333 14.776667 5.037500 # Co 
399 1 1 0.000000 1.343333 14.776667 9.067500 # Co 
400 1 1 0.000000 1.343333 14.776667 13.097500 # Co 
401 1 1 0.000000 5.373333 2.686667 1.007500 # Co 
402 1 1 0.000000 5.373333 2.686667 5.037500 # Co 
403 1 1 0.000000 5.373333 2.686667 9.067500 # Co 
404 1 1 0.000000 5.373333 2.686667 13.097500 # Co 
405 1 1 0.000000 5.373333 6.716667 1.007500 # Co 
406 1 1 0.000000 5.373333 6.716667 5.037500 # Co 
407 1 1 0.000000 5.373333 6.716667 9.067500 # Co 
408 1 1 0.000000 5.373333 6.716667 13.097500 # Co 
409 1 1 0.000000 5.373333 10.746667 1.007500 # Co 
410 1 1 0.000000 5.373333 10.746667 5.037500 # Co 
411 1 1 0.000000 5.373333 10.746667 9.067500 # Co 
412 1 1 0.000000 5.373333 10.746667 13.097500 # Co 
413 1 1 0.000000 5.373333 14.776667 1.007500 # Co 
414 1 1 0.000000 5.373333 14.776667 5.037500 # Co 
415 1 1 0.000000 5.373333 14.776667 9.067500 # Co 
416 1 1 0.000000 5.373333 14.776667 13.097500 # Co 
417 1 1 0.000000 9.403333 2.686667 1.007500 # Co 
418 1 1 0.000000 9.403333 2.686667 5.037500 # Co 
419 1 1 0.000000 9.403333 2.686667 9.067500 # Co 
420 1 1 0.000000 9.403333 2.686667 13.097500 # Co 
421 1 1 0.000000 9.403333 6.716667 1.007500 # Co 
422 1 1 0.000000 9.403333 6.716667 5.037500 # Co 
423 1 1 0.000000 9.403333 6.716667 9.067500 # Co 
424 1 1 0.000000 9.403333 6.716667 13.097500 # Co 
425 1 1 0.000000 9.403333 10.746667 1.007500 # Co 
426 1 1 0.000000 9.403333 10.746667 5.037500 # Co 
427 1 1 0.000000 9.403333 10.746667 9.067500 # Co 
428 1 1 0.000000 9.403333 10.746667 13.097500 # Co 
429 1 1 0.000000 9.403333 14.776667 1.007500 # Co 
430 1 1 0.000000 9.403333 14.776667 5.037500 # Co 
431 1 1 0.000000 9.403333 14.776667 9.067500 # Co 
432 1 1 0.000000 9.403333 14.776667 13.097500 # Co 
433 1 1 0.000000 13.433333 2.686667 1.007500 # Co 
434 1 1 0.000000 13.433333 2.686667 5.037500 # Co 
435 1 1 0.000000 13.433333 2.686667 9.067500 # Co 
436 1 1 0.000000 13.433333 2.686667 13.097500 # Co 
437 1 1 0.000000 13.433333 6.716667 1.007500 # Co 
438 1 1 0.000000 13.433333 6.716667 5.037500 # Co 
439 1 1 0.000000 13.433333 6.716667 9.067500 # Co 
440 1 1 0.000000 13.433333 6.716667 13.097500 # Co 
441 1 1 0.000000 13.433333 10.746667 1.007500 # Co 
442 1 1 0.000000 13.433333 10.746667 5.037500 # Co 
443 1 1 0.000000 13.433333 10.746667 9.067500 # Co 
444 1 1 0.000000 13.433333 10.746667 13.097500 # Co 
445 1 1 0.000000 13.433333 14.776667 1.007500 # Co 
446 1 1 0.000000 13.433333 14.776667 5.037500 # Co 
447 1 1 0.000000 13.433333 14.776667 9.067500 # Co 
448 1 1 0.000000 13.433333 14.776667 13.097500 # Co 
449 1 1 0.000000 2.686667 1.343333 3.022500 # Co 
450 1 1 0.000000 2.686667 1.343333 7.052500 # Co 
451 1 1 0.000000 2.686667 1.343333 11.082500 # Co 
452 1 1 0.000000 2.686667 1.343333 15.112500 # Co 
453 1 1 0.000000 2.686667 5.373333 3.022500 # Co 
454 1 1 0.000000 2.686667 5.373333 7.052500 # Co 
455 1 1 0.000000 2.686667 5.373333 11.082500 # Co 
456 1 1 0.000000 2.686667 5.373333 15.112500 # Co 
457 1 1 0.000000 2.686667 9.403333 3.022500 # Co 
458 1 1 0.000000 2.686667 9.403333 7.052500 # Co 
459 1 1 0.000000 2.686667 9.403333 11.082500 # Co 
460 1 1 0.000000 2.686667 9.403333 15.112500 # Co 
461 1 1 0.000000 2.686667 13.433333 3.022500 # Co 
462 1 1 0.000000 2.686667 13.433333 7.052500 # Co 
463 1 1 0.000000 2.686667 13.433333 11.082500 # Co 
464 1 1 0.000000 2.686667 13.433333 15.112500 # Co 
465 1 1 0.000000 6.716667 1.343333 3.022500 # Co 
466 1 1 0.000000 6.716667 1.343333 7.052500 # Co 
467 1 1 0.000000 6.716667 1.343333 11.082500 # Co 
468 1 1 0.000000 6.716667 1.343333 15.112500 # Co 
469 1 1 0.000000 6.716667 5.373333 3.022500 # Co 
470 1 1 0.000000 6.716667 5.373333 7.052500 # Co 
471 1 1 0.000000 6.716667 5.373333 11.082500 # Co 
472 1 1 0.000000 6.716667 5.373333 15.112500 # Co 
473 1 1 0.000000 6.716667 9.403333 3.022500 # Co 
474 1 1 0.000000 6.716667 9.403333 7.052500 # Co 
475 1 1 0.000000 6.716667 9.403333 11.082500 # Co 
476 1 1 0.000000 6.716667 9.403333 15.112500 # Co 
477 1 1 0.000000 6.716667 13.433333 3.022500 # Co 
478 1 1 0.000000 6.716667 13.433333 7.052500 # Co 
479 1 1 0.000000 6.716667 13.433333 11.082500 # Co 
480 1 1 0.000000 6.716667 13.433333 15.112500 # Co 
481 1 1 0.000000 10.746667 1.343333 3.022500 # Co 
482 1 1 0.000000 10.746667 1.343333 7.052500 # Co 
483 1 1 0.000000 10.746667 1.343333 11.082500 # Co 
484 1 1 0.000000 10.746667 1.343333 15.112500 # Co 
485 1 1 0.000000 10.746667 5.373333 3.022500 # Co 
486 1 1 0.000000 10.746667 5.373333 7.052500 # Co 
487 1 1 0.000000 10.746667 5.373333 11.082500 # Co 
488 1 1 0.000000 10.746667 5.373333 15.112500 # Co 
489 1 1 0.000000 10.746667 9.403333 3.022500 # Co 
490 1 1 0.000000 10.746667 9.403333 7.052500 # Co 
491 1 1 0.000000 10.746667 9.403333 11.082500 # Co 
492 1 1 0.000000 10.746667 9.403333 15.112500 # Co 
493 1 1 0.000000 10.746667 13.433333 3.022500 # Co 
494 1 1 0.000000 10.746667 13.433333 7.052500 # Co 
495 1 1 0.000000 10.746667 13.433333 11.082500 # Co 
496 1 1 0.000000 10.746667 13.433333 15.112500 # Co 
497 1 1 0.000000 14.776667 1.343333 3.022500 # Co 
498 1 1 0.000000 14.776667 1.343333 7.052500 # Co 
499 1 1 0.000000 14.776667 1.343333 11.082500 # Co 
500 1 1 0.000000 14.776667 1.343333 15.112500 # Co 
501 1 1 0.000000 14.776667 5.373333 3.022500 # Co 
502 1 1 0.000000 14.776667 5.373333 7.052500 # Co 
503 1 1 0.000000 14.776667 5.373333 11.082500 # Co 
504 1 1 0.000000 14.776667 5.373333 15.112500 # Co 
505 1 1 0.000000 14.776667 9.403333 3.022500 # Co 
506 1 1 0.000000 14.776667 9.403333 7.052500 # Co 
507 1 1 0.000000 14.776667 9.403333 11.082500 # Co 
508 1 1 0.000000 14.776667 9.403333 15.112500 # Co 
509 1 1 0.000000 14.776667 13.433333 3.022500 # Co 
510 1 1 0.000000 14.776667 13.433333 7.052500 # Co 
511 1 1 0.000000 14.776667 13.433333 11.082500 # Co 
512 1 1 0.000000 14.776667 13.433333 15.112500 # Co 

 Bonds

1 1 1 321
2 1 1 257
3 1 1 401
4 1 1 261
5 1 1 385
6 1 2 321
7 1 2 258
8 1 2 402
9 1 2 262
10 1 2 322
11 1 2 386
12 1 3 259
13 1 3 403
14 1 3 263
15 1 3 323
16 1 3 387
17 1 3 322
18 1 4 260
19 1 4 404
20 1 4 264
21 1 4 388
22 1 4 324
23 1 4 323
24 1 5 405
25 1 5 265
26 1 5 325
27 1 5 389
28 1 5 261
29 1 6 390
30 1 6 325
31 1 6 262
32 1 6 406
33 1 6 266
34 1 6 326
35 1 7 263
36 1 7 407
37 1 7 267
38 1 7 327
39 1 7 391
40 1 7 326
41 1 8 264
42 1 8 408
43 1 8 268
44 1 8 328
45 1 8 392
46 1 8 327
47 1 9 265
48 1 9 409
49 1 9 269
50 1 9 329
51 1 9 393
52 1 10 266
53 1 10 410
54 1 10 270
55 1 10 330
56 1 10 394
57 1 10 329
58 1 11 395
59 1 11 330
60 1 11 267
61 1 11 411
62 1 11 271
63 1 11 331
64 1 12 268
65 1 12 412
66 1 12 272
67 1 12 332
68 1 12 396
69 1 12 331
70 1 13 269
71 1 13 413
72 1 13 397
73 1 13 333
74 1 14 270
75 1 14 414
76 1 14 334
77 1 14 398
78 1 14 333
79 1 15 271
80 1 15 415
81 1 15 335
82 1 15 399
83 1 15 334
84 1 16 336
85 1 16 335
86 1 16 272
87 1 16 416
88 1 16 400
89 1 17 273
90 1 17 417
91 1 17 277
92 1 17 337
93 1 17 401
94 1 18 274
95 1 18 418
96 1 18 278
97 1 18 338
98 1 18 402
99 1 18 337
100 1 19 275
101 1 19 419
102 1 19 279
103 1 19 339
104 1 19 403
105 1 19 338
106 1 20 276
107 1 20 420
108 1 20 280
109 1 20 340
110 1 20 404
111 1 20 339
112 1 21 405
113 1 21 277
114 1 21 341
115 1 21 421
116 1 21 281
117 1 22 278
118 1 22 422
119 1 22 282
120 1 22 342
121 1 22 341
122 1 22 406
123 1 23 279
124 1 23 423
125 1 23 283
126 1 23 343
127 1 23 342
128 1 23 407
129 1 24 280
130 1 24 344
131 1 24 424
132 1 24 284
133 1 24 343
134 1 24 408
135 1 25 281
136 1 25 345
137 1 25 425
138 1 25 285
139 1 25 409
140 1 26 426
141 1 26 286
142 1 26 346
143 1 26 345
144 1 26 410
145 1 26 282
146 1 27 283
147 1 27 427
148 1 27 287
149 1 27 347
150 1 27 346
151 1 27 411
152 1 28 284
153 1 28 348
154 1 28 428
155 1 28 288
156 1 28 347
157 1 28 412
158 1 29 285
159 1 29 429
160 1 29 349
161 1 29 413
162 1 30 286
163 1 30 430
164 1 30 350
165 1 30 414
166 1 30 349
167 1 31 415
168 1 31 350
169 1 31 287
170 1 31 431
171 1 31 351
172 1 32 288
173 1 32 432
174 1 32 352
175 1 32 416
176 1 32 351
177 1 33 289
178 1 33 433
179 1 33 293
180 1 33 353
181 1 33 417
182 1 34 290
183 1 34 434
184 1 34 294
185 1 34 354
186 1 34 418
187 1 34 353
188 1 35 291
189 1 35 435
190 1 35 295
191 1 35 355
192 1 35 419
193 1 35 354
194 1 36 355
195 1 36 292
196 1 36 436
197 1 36 296
198 1 36 356
199 1 36 420
200 1 37 293
201 1 37 357
202 1 37 437
203 1 37 297
204 1 37 421
205 1 38 294
206 1 38 438
207 1 38 298
208 1 38 358
209 1 38 357
210 1 38 422
211 1 39 295
212 1 39 439
213 1 39 299
214 1 39 359
215 1 39 358
216 1 39 423
217 1 40 360
218 1 40 440
219 1 40 300
220 1 40 359
221 1 40 424
222 1 40 296
223 1 41 425
224 1 41 297
225 1 41 361
226 1 41 441
227 1 41 301
228 1 42 298
229 1 42 442
230 1 42 302
231 1 42 362
232 1 42 361
233 1 42 426
234 1 43 299
235 1 43 443
236 1 43 303
237 1 43 363
238 1 43 362
239 1 43 427
240 1 44 300
241 1 44 364
242 1 44 444
243 1 44 304
244 1 44 363
245 1 44 428
246 1 45 301
247 1 45 445
248 1 45 365
249 1 45 429
250 1 46 430
251 1 46 365
252 1 46 302
253 1 46 446
254 1 46 366
255 1 47 303
256 1 47 447
257 1 47 367
258 1 47 431
259 1 47 366
260 1 48 304
261 1 48 448
262 1 48 368
263 1 48 432
264 1 48 367
265 1 49 305
266 1 49 309
267 1 49 433
268 1 49 369
269 1 50 306
270 1 50 310
271 1 50 370
272 1 50 434
273 1 50 369
274 1 51 370
275 1 51 307
276 1 51 311
277 1 51 371
278 1 51 435
279 1 52 308