ITEM: TIMESTEP
0
ITEM: NUMBER OF ATOMS
512
ITEM: BOX BOUNDS pp pp pp
-4.0000000000000001e-02 1.6160001000000001e+01
-4.0000000000000001e-02 1.6160001000000001e+01
-4.0001000000000002e-02 1.6160000000000000e+01
ITEM: ATOMS id type xs ys zs
1 2 0.220898 0.164887 0.0826435
65 2 0.0775378 0.21673 0.187593
129 2 0.104303 0.064298 0.0834659
193 2 0.0671107 0.0905195 0.20424
257 2 0.20631 0.0846316 0.0757382
321 2 0.153598 0.217255 0.225039
385 1 0.0846708 0.163036 0.0861313
449 1 0.16089 0.0987177 0.180069
17 2 0.469679 0.162045 0.0837056
81 2 0.270906 0.236469 0.18456
145 2 0.346791 0.0584167 0.0865769
209 2 0.287625 0.0897116 0.193904
273 2 0.466529 0.0732035 0.0790045
337 2 0.386381 0.216547 0.210657
401 1 0.338275 0.163233 0.084237
465 1 0.412922 0.0941248 0.18768
33 2 0.716354 0.163074 0.078253
97 2 0.517502 0.234557 0.184052
161 2 0.594988 0.0590061 0.0861208
225 2 0.533072 0.0905829 0.197205
289 2 0.718501 0.0762689 0.0755808
353 2 0.648936 0.217792 0.207141
417 1 0.590705 0.16087 0.0798017
481 1 0.67072 0.0949467 0.192526
49 2 0.935806 0.156354 0.0867345
113 2 0.765025 0.235079 0.185953
177 2 0.838608 0.0610511 0.0861391
241 2 0.787788 0.0971774 0.196935
305 2 0.914926 0.0736098 0.0718459
369 2 0.893225 0.231997 0.196959
433 1 0.840707 0.162459 0.0894405
497 1 0.922114 0.0913232 0.182391
5 2 0.217487 0.402473 0.0829398
69 2 0.0769488 0.467681 0.185547
133 2 0.10536 0.302894 0.0852408
197 2 0.063472 0.349966 0.200842
261 2 0.213219 0.280892 0.0793174
325 2 0.153726 0.465242 0.224597
389 1 0.0785307 0.408229 0.0835238
453 1 0.155295 0.344968 0.177431
21 2 0.467116 0.400355 0.0850203
85 2 0.268804 0.485362 0.18763
149 2 0.344023 0.283877 0.0853266
213 2 0.284216 0.361706 0.207927
277 2 0.472964 0.275798 0.0815063
341 2 0.38708 0.469636 0.20652
405 1 0.336268 0.407592 0.0791663
469 1 0.400453 0.348327 0.175463
37 2 0.709856 0.399327 0.0832285
101 2 0.516102 0.483735 0.185539
165 2 0.600573 0.285922 0.0818404
229 2 0.529344 0.36308 0.211376
293 2 0.726509 0.273416 0.0802238
357 2 0.634178 0.468343 0.205251
421 1 0.590473 0.41125 0.0795312
485 1 0.644877 0.347728 0.18324
53 2 0.933154 0.400295 0.0835435
117 2 0.765108 0.485581 0.184211
181 2 0.842303 0.280013 0.0805196
245 2 0.787497 0.365743 0.214801
309 2 0.913098 0.276617 0.0813877
373 2 0.890871 0.479347 0.194146
437 1 0.840712 0.409544 0.089694
501 1 0.918057 0.326453 0.189913
9 2 0.218708 0.658201 0.0851809
73 2 0.0756921 0.720671 0.191502
137 2 0.106156 0.544882 0.0870831
201 2 0.0654772 0.599928 0.201402
265 2 0.215462 0.53365 0.0809689
329 2 0.153407 0.713998 0.228357
393 1 0.0801154 0.662866 0.0809604
457 1 0.153369 0.599277 0.174166
25 2 0.4684 0.656838 0.0872253
89 2 0.268067 0.730316 0.189556
153 2 0.341804 0.529479 0.0866847
217 2 0.286423 0.61451 0.210361
281 2 0.472776 0.527876 0.0852848
345 2 0.38592 0.713016 0.208968
409 1 0.337844 0.658176 0.0796251
473 1 0.398892 0.596194 0.173335
41 2 0.717863 0.660173 0.0868269
105 2 0.513404 0.728498 0.188257
169 2 0.599572 0.533258 0.0848235
233 2 0.531773 0.615925 0.209378
297 2 0.724043 0.528465 0.0810108
361 2 0.655208 0.716895 0.208114
425 1 0.590294 0.657814 0.0803645
489 1 0.642548 0.591246 0.176838
57 2 0.932971 0.647216 0.0833037
121 2 0.764022 0.729473 0.189399
185 2 0.844834 0.530959 0.0850541
249 2 0.787162 0.61407 0.212987
313 2 0.919178 0.533177 0.0835047
377 2 0.88635 0.721334 0.192686
441 1 0.843393 0.656794 0.0880552
505 1 0.921008 0.580459 0.191151
13 2 0.219656 0.889109 0.0832146
77 2 0.0660796 0.9185 0.181912
141 2 0.109967 0.79906 0.0840158
205 2 0.0703562 0.837607 0.206135
269 2 0.214956 0.796976 0.0795459
333 2 0.167898 0.928482 0.199259
397 1 0.0974028 0.905456 0.0934344
461 1 0.153642 0.850595 0.179832
29 2 0.465001 0.885661 0.0868846
93 2 0.269305 0.919694 0.181075
157 2 0.348729 0.792269 0.0840917
221 2 0.284896 0.853442 0.223769
285 2 0.468079 0.791953 0.0797238
349 2 0.400772 0.93006 0.200205
413 1 0.33434 0.918448 0.0806456
477 1 0.40589 0.852626 0.166368
45 2 0.709834 0.886624 0.08276
109 2 0.521289 0.917479 0.182069
173 2 0.602045 0.801633 0.0824479
237 2 0.53514 0.855462 0.221002
301 2 0.720732 0.793795 0.0788932
365 2 0.650553 0.932577 0.198445
429 1 0.588767 0.918689 0.0832068
493 1 0.655813 0.849107 0.169938
61 2 0.923627 0.870088 0.0885426
125 2 0.774302 0.921524 0.18239
189 2 0.840987 0.798585 0.0809421
253 2 0.796789 0.855743 0.220119
317 2 0.913242 0.796158 0.0797471
381 2 0.877748 0.93045 0.19284
445 1 0.83484 0.920563 0.0987608
509 1 0.928237 0.839738 0.181753
2 2 0.216154 0.15948 0.317366
66 2 0.0762373 0.216983 0.439444
130 2 0.107395 0.0590112 0.322662
194 2 0.0646168 0.100181 0.445414
258 2 0.217633 0.0714403 0.309526
322 2 0.155242 0.216393 0.442091
386 1 0.0897713 0.154154 0.309354
450 1 0.153361 0.102053 0.435692
18 2 0.467005 0.158551 0.31966
82 2 0.265222 0.235272 0.444348
146 2 0.341455 0.0641294 0.323613
210 2 0.290538 0.0983578 0.430998
274 2 0.471742 0.0654011 0.307902
338 2 0.391197 0.218016 0.442292
402 1 0.346171 0.155654 0.297106
466 1 0.412726 0.108301 0.444926
34 2 0.716676 0.160913 0.319838
98 2 0.514328 0.23528 0.444709
162 2 0.590945 0.063255 0.322273
226 2 0.536736 0.0971935 0.433765
290 2 0.714764 0.073028 0.310979
354 2 0.648902 0.222576 0.445812
418 1 0.594407 0.152196 0.294247
482 1 0.666691 0.102504 0.446026
50 2 0.936419 0.174494 0.320321
114 2 0.764517 0.23379 0.445051
178 2 0.829008 0.0639129 0.32132
242 2 0.79206 0.104309 0.433301
306 2 0.91672 0.0654296 0.314285
370 2 0.883225 0.229408 0.434523
434 1 0.842036 0.161896 0.299497
498 1 0.919533 0.0981928 0.431622
6 2 0.218252 0.394568 0.316776
70 2 0.0709974 0.465521 0.432844
134 2 0.102583 0.29928 0.305311
198 2 0.0614683 0.344114 0.445552
262 2 0.227502 0.264391 0.301371
326 2 0.158239 0.467818 0.445258
390 1 0.0835133 0.406816 0.311892
454 1 0.157413 0.338792 0.440082
22 2 0.471063 0.393148 0.316406
86 2 0.265645 0.484146 0.446496
150 2 0.347375 0.277389 0.31391
214 2 0.280133 0.352869 0.44553
278 2 0.488847 0.259708 0.303856
342 2 0.392036 0.4725 0.440845
406 1 0.35648 0.40846 0.299907
470 1 0.405223 0.347532 0.448443
38 2 0.717637 0.393619 0.315772
102 2 0.515015 0.487677 0.439743
166 2 0.606206 0.27858 0.316306
230 2 0.52791 0.360039 0.44369
294 2 0.738776 0.262263 0.309585
358 2 0.649114 0.473339 0.446497
422 1 0.599336 0.40665 0.290754
486 1 0.65455 0.348475 0.449413
54 2 0.93425 0.412016 0.319142
118 2 0.765733 0.485659 0.444175
182 2 0.846735 0.27837 0.319237
246 2 0.782625 0.361568 0.441564
310 2 0.93113 0.261357 0.30676
374 2 0.875099 0.478211 0.43337
438 1 0.852288 0.409626 0.289388
502 1 0.915683 0.332867 0.448232
10 2 0.219958 0.651619 0.31416
74 2 0.066784 0.716288 0.436375
138 2 0.105702 0.548282 0.305265
202 2 0.0624828 0.594575 0.446275
266 2 0.2324 0.514491 0.30508
330 2 0.157574 0.714367 0.450743
394 1 0.0838628 0.655353 0.316354
458 1 0.156072 0.591064 0.441207
26 2 0.471758 0.65346 0.313957
90 2 0.260994 0.733654 0.44609
154 2 0.344344 0.527133 0.314188
218 2 0.278597 0.610166 0.445632
282 2 0.484997 0.512957 0.303372
346 2 0.389194 0.717576 0.447666
410 1 0.356912 0.650457 0.302838
474 1 0.402967 0.594027 0.450471
42 2 0.719907 0.654732 0.317356
106 2 0.515802 0.733036 0.444486
170 2 0.609861 0.531301 0.319327
234 2 0.527117 0.609653 0.441088
298 2 0.73733 0.518374 0.303135
362 2 0.657701 0.720486 0.44471
426 1 0.587936 0.638965 0.303084
490 1 0.650524 0.593457 0.446176
58 2 0.933095 0.655932 0.320946
122 2 0.766085 0.733659 0.442528
186 2 0.849547 0.53114 0.322084
250 2 0.788303 0.614112 0.442219
314 2 0.933962 0.516603 0.306814
378 2 0.870492 0.718872 0.432798
442 1 0.845748 0.650468 0.291446
506 1 0.918754 0.580888 0.443113
14 2 0.214179 0.875689 0.306749
78 2 0.0663611 0.920281 0.433195
142 2 0.114714 0.797165 0.304882
206 2 0.0701468 0.826241 0.445833
270 2 0.221321 0.77617 0.31059
334 2 0.182068 0.932158 0.44624
398 1 0.0882587 0.918181 0.308924
462 1 0.156772 0.843934 0.430402
30 2 0.466504 0.874139 0.309425
94 2 0.268023 0.924996 0.430481
158 2 0.352696 0.777887 0.308346
222 2 0.281436 0.844724 0.448565
286 2 0.48581 0.764003 0.303502
350 2 0.402971 0.936684 0.436438
414 1 0.348682 0.923377 0.315438
478 1 0.415187 0.846526 0.440623
46 2 0.709712 0.874652 0.309874
110 2 0.522738 0.923967 0.428327
174 2 0.617649 0.786666 0.319697
238 2 0.528581 0.844074 0.444446
302 2 0.740103 0.77262 0.302
366 2 0.650762 0.937432 0.4394
430 1 0.590879 0.923918 0.3093
494 1 0.642565 0.851262 0.427478
62 2 0.933514 0.867416 0.315423
126 2 0.779514 0.927511 0.430255
190 2 0.850928 0.788977 0.326745
254 2 0.792077 0.849205 0.446294
318 2 0.924062 0.774894 0.308084
382 2 0.864558 0.928244 0.436235
446 1 0.839131 0.927556 0.301199
510 1 0.926926 0.838356 0.43148
3 2 0.220153 0.159187 0.563818
67 2 0.0746674 0.217049 0.682981
131 2 0.108292 0.0637584 0.566848
195 2 0.0691696 0.102795 0.690574
259 2 0.218738 0.0783282 0.560386
323 2 0.160902 0.217674 0.692057
387 1 0.0901452 0.156703 0.557511
451 1 0.156827 0.107795 0.681612
19 2 0.471786 0.161566 0.563893
83 2 0.263161 0.236198 0.684816
147 2 0.346191 0.064149 0.574499
211 2 0.290326 0.0996018 0.682577
275 2 0.465813 0.0600148 0.553989
339 2 0.390485 0.218737 0.678401
403 1 0.342671 0.156229 0.557138
467 1 0.413273 0.108738 0.695007
35 2 0.718408 0.162028 0.569546
99 2 0.513264 0.235195 0.678364
163 2 0.595459 0.0628468 0.569836
227 2 0.536496 0.0996068 0.680523
291 2 0.721251 0.0683694 0.558856
355 2 0.652408 0.221148 0.67972
419 1 0.591836 0.151825 0.548162
483 1 0.671719 0.11022 0.694461
51 2 0.935655 0.171042 0.572356
115 2 0.7677 0.235413 0.683854
179 2 0.828401 0.0671779 0.57079
243 2 0.793618 0.105511 0.685738
307 2 0.919153 0.0654124 0.558892
371 2 0.884276 0.229783 0.689624
435 1 0.845851 0.157725 0.544921
499 1 0.921349 0.0954201 0.683409
7 2 0.219681 0.391942 0.557158
71 2 0.0649395 0.462657 0.684445
135 2 0.10488 0.300038 0.556568
199 2 0.0606944 0.34614 0.694379
263 2 0.23342 0.267766 0.565552
327 2 0.16327 0.469236 0.69079
391 1 0.0837854 0.406602 0.563967
455 1 0.157711 0.345169 0.687295
23 2 0.474986 0.391652 0.5557
87 2 0.26398 0.48803 0.678217
151 2 0.344541 0.270831 0.561547
215 2 0.281659 0.351547 0.680564
279 2 0.486306 0.270763 0.560701
343 2 0.388355 0.469247 0.674684
407 1 0.349606 0.403548 0.563972
471 1 0.405935 0.34588 0.706421
39 2 0.721018 0.392068 0.561238
103 2 0.512897 0.488862 0.676396
167 2 0.612476 0.27401 0.560592
231 2 0.528662 0.352311 0.679823
295 2 0.7361 0.262258 0.555412
359 2 0.65209 0.471128 0.675168
423 1 0.595598 0.396253 0.561286
487 1 0.654158 0.344043 0.70415
55 2 0.933167 0.406619 0.566267
119 2 0.764503 0.49001 0.679616
183 2 0.846863 0.276063 0.566599
247 2 0.786702 0.354743 0.68494
311 2 0.926908 0.260754 0.556035
375 2 0.873931 0.478712 0.683856
439 1 0.848251 0.407839 0.547341
503 1 0.913497 0.340278 0.698138
11 2 0.225743 0.650769 0.555752
75 2 0.0696499 0.715395 0.68538
139 2 0.10795 0.546162 0.555811
203 2 0.0620784 0.594669 0.690888
267 2 0.232444 0.515898 0.566944
331 2 0.160586 0.716069 0.696833
395 1 0.0846581 0.66369 0.559517
459 1 0.156834 0.593391 0.68221
27 2 0.476328 0.650055 0.553261
91 2 0.260089 0.734456 0.686824
155 2 0.360609 0.52602 0.552994
219 2 0.283487 0.61511 0.680743
283 2 0.484052 0.514063 0.563627
347 2 0.386594 0.714426 0.680887
411 1 0.348186 0.651837 0.564969
475 1 0.406558 0.593618 0.705567
43 2 0.71935 0.641887 0.559231
107 2 0.511195 0.734106 0.683036
171 2 0.610209 0.525191 0.555002
235 2 0.53066 0.612855 0.674788
299 2 0.730263 0.513661 0.562665
363 2 0.652998 0.712569 0.679078
427 1 0.597443 0.650592 0.565257
491 1 0.656017 0.5961 0.704764
59 2 0.93297 0.652924 0.567561
123 2 0.773551 0.734234 0.69464
187 2 0.845582 0.524203 0.559339
251 2 0.790392 0.616783 0.677742
315 2 0.927568 0.513642 0.553475
379 2 0.87079 0.722193 0.688159
443 1 0.845924 0.646812 0.552508
507 1 0.917664 0.583842 0.695412
15 2 0.218609 0.876815 0.561136
79 2 0.0653125 0.921739 0.68367
143 2 0.115327 0.796509 0.558598
207 2 0.068438 0.827308 0.697114
271 2 0.224469 0.770505 0.564742
335 2 0.180146 0.935327 0.698341
399 1 0.0931969 0.916998 0.56102
463 1 0.15644 0.843208 0.678373
31 2 0.466761 0.870003 0.559988
95 2 0.268834 0.924864 0.673026
159 2 0.366145 0.777726 0.551772
223 2 0.283634 0.843962 0.695547
287 2 0.485999 0.764217 0.565806
351 2 0.406445 0.936795 0.691178
415 1 0.339386 0.923228 0.564874
479 1 0.405881 0.846226 0.685059
47 2 0.709095 0.872953 0.559841
111 2 0.519979 0.924757 0.677229
175 2 0.616103 0.778025 0.555191
239 2 0.531046 0.842017 0.687515
303 2 0.736079 0.768653 0.5636
367 2 0.651633 0.937716 0.690684
431 1 0.589093 0.922616 0.564163
495 1 0.645736 0.843686 0.686778
63 2 0.935305 0.870039 0.56209
127 2 0.778529 0.930167 0.682483
191 2 0.8475 0.783189 0.562124
255 2 0.791062 0.847308 0.688761
319 2 0.924903 0.777614 0.55963
383 2 0.867568 0.930957 0.685084
447 1 0.836223 0.929061 0.551305
511 1 0.925998 0.840063 0.679067
4 2 0.22423 0.144435 0.812422
68 2 0.0882235 0.218807 0.909359
132 2 0.102849 0.070715 0.808014
196 2 0.0736224 0.0942046 0.902753
260 2 0.218104 0.0857775 0.812463
324 2 0.163544 0.216756 0.906848
388 1 0.089638 0.150112 0.812289
452 1 0.169288 0.109876 0.938669
20 2 0.479658 0.149834 0.803777
84 2 0.278729 0.224046 0.911787
148 2 0.349459 0.0624513 0.80778
212 2 0.283426 0.0969419 0.89939
276 2 0.472187 0.0813087 0.808291
340 2 0.400095 0.222513 0.907519
404 1 0.349561 0.152777 0.812952
468 1 0.407503 0.11039 0.943475
36 2 0.725425 0.149066 0.81467
100 2 0.524508 0.223186 0.908338
164 2 0.598309 0.0630296 0.80412
228 2 0.532622 0.0981018 0.89997
292 2 0.719186 0.0862676 0.809254
356 2 0.65804 0.223745 0.903586
420 1 0.59645 0.152882 0.810602
484 1 0.658608 0.111889 0.938411
52 2 0.930141 0.17742 0.819695
116 2 0.785378 0.225864 0.905013
180 2 0.826957 0.0718692 0.816196
244 2 0.796529 0.0954049 0.898584
308 2 0.914083 0.0729473 0.801833
372 2 0.891113 0.218447 0.900142
436 1 0.844168 0.156574 0.789858
500 1 0.906367 0.108495 0.91794
8 2 0.22438 0.387701 0.786053
72 2 0.0809558 0.468256 0.911269
136 2 0.102318 0.288728 0.796916
200 2 0.0697877 0.340456 0.902739
264 2 0.225484 0.270938 0.821704
328 2 0.163518 0.469859 0.908661
392 1 0.0852266 0.412993 0.816688
456 1 0.170878 0.334121 0.942244
24 2 0.474639 0.386113 0.791305
88 2 0.279415 0.476056 0.915183
152 2 0.345986 0.26295 0.79032
216 2 0.272843 0.345438 0.902263
280 2 0.481451 0.265148 0.819556
344 2 0.396235 0.473788 0.910897
408 1 0.346921 0.399541 0.825621
472 1 0.410734 0.337719 0.953572
40 2 0.726454 0.380182 0.797448
104 2 0.526706 0.476117 0.912026
168 2 0.618901 0.265518 0.791196
232 2 0.522741 0.347285 0.906154
296 2 0.731826 0.268582 0.817191
360 2 0.653885 0.473956 0.9064
424 1 0.597719 0.401419 0.825977
488 1 0.662076 0.337892 0.949434
56 2 0.933279 0.405705 0.815974
120 2 0.785843 0.479113 0.90919
184 2 0.857388 0.268152 0.80788
248 2 0.781065 0.346142 0.905184
312 2 0.922086 0.262845 0.809469
376 2 0.884985 0.474252 0.9007
440 1 0.849171 0.404277 0.794952
504 1 0.906108 0.345739 0.938434
12 2 0.230094 0.650404 0.788872
76 2 0.0826672 0.723115 0.906327
140 2 0.106893 0.539077 0.798536
204 2 0.0729415 0.590301 0.903819
268 2 0.217746 0.52399 0.824226
332 2 0.164001 0.717909 0.906253
396 1 0.08624 0.670485 0.821571
460 1 0.167689 0.584744 0.944308
28 2 0.477597 0.648109 0.79288
92 2 0.275718 0.72379 0.917133
156 2 0.356572 0.522919 0.793824
220 2 0.276925 0.603775 0.907844
284 2 0.479401 0.522847 0.825202
348 2 0.395831 0.719679 0.91023
412 1 0.347657 0.652201 0.826136
476 1 0.409913 0.589954 0.956961
44 2 0.719788 0.639299 0.797785
108 2 0.525419 0.72096 0.915318
172 2 0.614677 0.524206 0.791547
236 2 0.525857 0.603773 0.910953
300 2 0.731266 0.525147 0.818025
364 2 0.655077 0.724685 0.906648
428 1 0.59594 0.649643 0.825815
492 1 0.657871 0.587052 0.954852
60 2 0.937872 0.649192 0.814656
124 2 0.786699 0.723579 0.914256
188 2 0.856709 0.519066 0.80392
252 2 0.785218 0.602589 0.90917
316 2 0.922383 0.514241 0.810368
380 2 0.884195 0.721482 0.904216
444 1 0.849282 0.650429 0.807324
508 1 0.907325 0.585824 0.937762
16 2 0.216872 0.879805 0.797044
80 2 0.0681119 0.915316 0.920723
144 2 0.113667 0.79374 0.800429
208 2 0.0790954 0.835612 0.903717
272 2 0.220315 0.779167 0.823409
336 2 0.164632 0.92103 0.902088
400 1 0.081184 0.92334 0.817494
464 1 0.171235 0.81041 0.94098
32 2 0.469874 0.877245 0.801284
96 2 0.267924 0.916317 0.897762
160 2 0.361178 0.776292 0.79555
224 2 0.282748 0.839265 0.902932
288 2 0.480559 0.773844 0.823686
352 2 0.405502 0.92658 0.904219
416 1 0.331725 0.921833 0.822192
480 1 0.414474 0.813987 0.942956
48 2 0.721498 0.87734 0.803227
112 2 0.523992 0.918465 0.902433
176 2 0.624175 0.777362 0.789156
240 2 0.530398 0.840399 0.906049
304 2 0.726435 0.77682 0.820698
368 2 0.653124 0.928404 0.904604
432 1 0.58534 0.920307 0.815657
496 1 0.662686 0.816053 0.942549
64 2 0.930477 0.872004 0.809611
128 2 0.779711 0.915069 0.902256
192 2 0.859462 0.779787 0.792857
256 2 0.797226 0.8441 0.905405
320 2 0.91927 0.775178 0.813525
384 2 0.875857 0.923257 0.904532
448 1 0.844562 0.925468 0.792397
512 1 0.912882 0.83256 0.928555
ITEM: TIMESTEP
100
ITEM: NUMBER OF ATOMS
512
ITEM: BOX BOUNDS pp pp pp
-4.0000000000000001e-02 1.6160001000000001e+01
-4.0000000000000001e-02 1.6160001000000001e+01
-4.0001000000000002e-02 1.6160000000000000e+01
ITEM: ATOMS id type xs ys zs
1 2 0.226369 0.155889 0.0730518
65 2 0.076258 0.221537 0.192427
129 2 0.116929 0.067402 0.0842733
193 2 0.0679392 0.0912038 0.209069
257 2 0.202651 0.0941735 0.0715634
321 2 0.139921 0.221421 0.250039
385 1 0.0860171 0.169022 0.109483
449 1 0.157098 0.0863253 0.177205
17 2 0.475794 0.15315 0.0795539
81 2 0.254926 0.251395 0.18981
145 2 0.351271 0.0573899 0.0808648
209 2 0.284273 0.105118 0.188244
273 2 0.470612 0.0732298 0.0822874
337 2 0.365384 0.223189 0.220702
401 1 0.336858 0.147359 0.0831475
465 1 0.408533 0.0796692 0.191422
33 2 0.730641 0.157419 0.074296
97 2 0.50406 0.248536 0.190349
161 2 0.597258 0.0591118 0.0905471
225 2 0.52539 0.103824 0.196133
289 2 0.722031 0.0932372 0.0762878
353 2 0.634644 0.22268 0.214433
417 1 0.613513 0.165968 0.0820417
481 1 0.683959 0.0810492 0.194761
49 2 0.945897 0.156948 0.0874239
113 2 0.754316 0.249156 0.186132
177 2 0.826285 0.0546402 0.0864103
241 2 0.783428 0.116077 0.195771
305 2 0.922583 0.070786 0.0673375
369 2 0.890551 0.247673 0.192721
433 1 0.852401 0.15674 0.127825
497 1 0.930656 0.0864194 0.154564
5 2 0.212432 0.402652 0.0769637
69 2 0.0731233 0.479915 0.184845
133 2 0.0998901 0.296525 0.072879
197 2 0.0694358 0.359857 0.207871
261 2 0.208483 0.268704 0.0842072
325 2 0.13944 0.46801 0.251227
389 1 0.0706871 0.411356 0.0747224
453 1 0.149906 0.381673 0.140614
21 2 0.476132 0.402741 0.0832161
85 2 0.254492 0.501856 0.192694
149 2 0.33685 0.28061 0.0823991
213 2 0.27461 0.373397 0.213756
277 2 0.486169 0.259872 0.0912124
341 2 0.36366 0.478139 0.210593
405 1 0.339623 0.402795 0.0750175
469 1 0.367536 0.411699 0.16292
37 2 0.718319 0.404113 0.0778784
101 2 0.499938 0.500085 0.193668
165 2 0.596731 0.280914 0.0788871
229 2 0.524911 0.382407 0.219715
293 2 0.73942 0.262409 0.0809661
357 2 0.607899 0.470657 0.204343
421 1 0.600354 0.386267 0.0745261
485 1 0.580169 0.397236 0.174075
53 2 0.929995 0.389567 0.0961917
117 2 0.753544 0.502961 0.188862
181 2 0.852766 0.273674 0.083119
245 2 0.780091 0.38266 0.224797
309 2 0.907815 0.267031 0.0880951
373 2 0.88013 0.486534 0.186228
437 1 0.867673 0.385243 0.109864
501 1 0.915985 0.321675 0.200236
9 2 0.222816 0.661444 0.0838608
73 2 0.076827 0.735717 0.196408
137 2 0.0992447 0.540637 0.0810245
201 2 0.070827 0.613519 0.209151
265 2 0.214755 0.526887 0.0865267
329 2 0.145073 0.723842 0.255943
393 1 0.085688 0.682192 0.0754474
457 1 0.129422 0.65422 0.144678
25 2 0.476965 0.664068 0.0913181
89 2 0.258983 0.740376 0.189941
153 2 0.336819 0.520871 0.0880002
217 2 0.279346 0.633287 0.230297
281 2 0.479574 0.517865 0.0946792
345 2 0.36372 0.719003 0.220346
409 1 0.33993 0.661182 0.0813582
473 1 0.360887 0.654651 0.156879
41 2 0.726872 0.671374 0.0839386
105 2 0.50051 0.740371 0.190266
169 2 0.597791 0.524367 0.0828411
233 2 0.527752 0.636483 0.21191
297 2 0.739573 0.526762 0.0834878
361 2 0.648237 0.722075 0.217468
425 1 0.607167 0.657793 0.0845939
489 1 0.596569 0.641663 0.166993
57 2 0.931624 0.630952 0.0887804
121 2 0.751956 0.737795 0.194548
185 2 0.851648 0.527528 0.0873428
249 2 0.777121 0.632135 0.228774
313 2 0.924911 0.522149 0.0881956
377 2 0.87327 0.716215 0.182334
441 1 0.870141 0.631063 0.117946
505 1 0.922295 0.591455 0.203599
13 2 0.226566 0.900533 0.0775921
77 2 0.0664951 0.924291 0.172279
141 2 0.109104 0.791953 0.0751459
205 2 0.0702096 0.827799 0.22272
269 2 0.215024 0.789721 0.0857032
333 2 0.168297 0.931102 0.204655
397 1 0.104038 0.897316 0.0993685
461 1 0.110992 0.899497 0.16148
29 2 0.475456 0.897161 0.0816014
93 2 0.249923 0.917002 0.182132
157 2 0.351767 0.792028 0.0821752
221 2 0.278311 0.865105 0.25937
285 2 0.474068 0.789293 0.0883553
349 2 0.3891 0.928703 0.209266
413 1 0.312889 0.915515 0.0754905
477 1 0.349818 0.87983 0.127066
45 2 0.708217 0.901135 0.0729418
109 2 0.507647 0.911722 0.181287
173 2 0.604038 0.79949 0.0802617
237 2 0.530489 0.869013 0.251746
301 2 0.730699 0.792409 0.0809095
365 2 0.647878 0.93339 0.20713
429 1 0.597363 0.919715 0.0715756
493 1 0.620732 0.885673 0.114821
61 2 0.927021 0.879945 0.0895112
125 2 0.761354 0.916276 0.19171
189 2 0.847253 0.795915 0.083467
253 2 0.788476 0.868922 0.25027
317 2 0.913908 0.796263 0.0818172
381 2 0.877909 0.931212 0.198167
445 1 0.802524 0.869507 0.122225
509 1 0.926962 0.847043 0.185021
2 2 0.219184 0.148612 0.316059
66 2 0.0820707 0.21623 0.440623
130 2 0.0984162 0.0555253 0.326165
194 2 0.0667325 0.114465 0.448241
258 2 0.21635 0.0738055 0.308095
322 2 0.14658 0.217261 0.441334
386 1 0.0800117 0.147924 0.294568
450 1 0.141473 0.0626298 0.40688
18 2 0.477325 0.147105 0.320821
82 2 0.244594 0.250274 0.439747
146 2 0.338343 0.0714122 0.331031
210 2 0.289954 0.127742 0.41981
274 2 0.486824 0.0559211 0.304444
338 2 0.36328 0.224255 0.443271
402 1 0.396113 0.135616 0.258155
466 1 0.366756 0.123609 0.44584
34 2 0.727101 0.154405 0.324948
98 2 0.497204 0.250593 0.441677
162 2 0.592559 0.0649274 0.32997
226 2 0.53287 0.119292 0.428029
290 2 0.730015 0.0647075 0.31148
354 2 0.631624 0.230345 0.450381
418 1 0.637046 0.124074 0.291495
482 1 0.666508 0.107786 0.453169
50 2 0.934371 0.180176 0.325613
114 2 0.756601 0.245484 0.444545
178 2 0.815977 0.0683517 0.330285
242 2 0.789323 0.128699 0.425373
306 2 0.927774 0.0625457 0.321873
370 2 0.878821 0.240569 0.432627
434 1 0.879149 0.13911 0.237933
498 1 0.928125 0.112443 0.404002
6 2 0.216447 0.371015 0.319117
70 2 0.0697152 0.475892 0.431736
134 2 0.124795 0.295647 0.297935
198 2 0.0556122 0.344911 0.451476
262 2 0.22781 0.245054 0.305352
326 2 0.145444 0.477003 0.454845
390 1 0.0821114 0.412985 0.309358
454 1 0.128306 0.340511 0.417796
22 2 0.48488 0.368014 0.311615
86 2 0.246156 0.503624 0.441273
150 2 0.354162 0.263102 0.310606
214 2 0.27567 0.368201 0.458203
278 2 0.49935 0.246406 0.305907
342 2 0.363056 0.482131 0.441573
406 1 0.409675 0.360888 0.307745
470 1 0.343074 0.405164 0.472919
38 2 0.732979 0.363733 0.313647
102 2 0.496863 0.500661 0.437233
166 2 0.636708 0.249588 0.317403
230 2 0.51274 0.381416 0.446059
294 2 0.748437 0.251499 0.305418
358 2 0.629392 0.480579 0.452221
422 1 0.655443 0.370908 0.292747
486 1 0.621691 0.417236 0.476285
54 2 0.93236 0.402469 0.326199
118 2 0.753729 0.501685 0.441458
182 2 0.851576 0.263897 0.32261
246 2 0.776766 0.384164 0.441741
310 2 0.923581 0.238052 0.312215
374 2 0.870915 0.485914 0.428303
438 1 0.897963 0.38114 0.266744
502 1 0.889097 0.347059 0.472989
10 2 0.22409 0.635104 0.314752
74 2 0.0590088 0.728604 0.43793
138 2 0.12853 0.547491 0.297299
202 2 0.0644671 0.595107 0.455955
266 2 0.238281 0.502687 0.314802
330 2 0.148954 0.718321 0.465949
394 1 0.0824993 0.656593 0.310829
458 1 0.116472 0.605329 0.435455
26 2 0.485018 0.630157 0.303235
90 2 0.24184 0.749422 0.434386
154 2 0.348881 0.509553 0.311888
218 2 0.268266 0.627709 0.452669
282 2 0.494196 0.506984 0.315461
346 2 0.368971 0.727479 0.454976
410 1 0.421806 0.610432 0.313855
474 1 0.354609 0.657733 0.474635
42 2 0.73132 0.644193 0.314442
106 2 0.50496 0.741204 0.436587
170 2 0.635643 0.52323 0.317995
234 2 0.517793 0.639599 0.442906
298 2 0.745047 0.515556 0.302045
362 2 0.651412 0.728545 0.450852
426 1 0.647122 0.59014 0.311207
490 1 0.577275 0.632337 0.470094
58 2 0.933192 0.644253 0.327406
122 2 0.758597 0.744678 0.440411
186 2 0.853058 0.519703 0.322905
250 2 0.790221 0.642262 0.450315
314 2 0.93392 0.505005 0.309795
378 2 0.853416 0.71423 0.418721
442 1 0.897609 0.611744 0.259387
506 1 0.921899 0.613003 0.446485
14 2 0.215816 0.869685 0.296867
78 2 0.0603126 0.92778 0.435888
142 2 0.136728 0.794887 0.293827
206 2 0.0659468 0.814634 0.460845
270 2 0.217282 0.776525 0.315241
334 2 0.185124 0.933369 0.453737
398 1 0.0941933 0.916472 0.282149
462 1 0.118062 0.878664 0.370519
30 2 0.474203 0.864227 0.302869
94 2 0.247941 0.918536 0.424909
158 2 0.362218 0.774839 0.307593
222 2 0.275841 0.852918 0.464525
286 2 0.492354 0.754129 0.3105
350 2 0.386399 0.944659 0.442407
414 1 0.369657 0.923401 0.304106
478 1 0.404701 0.891418 0.453199
46 2 0.71316 0.862132 0.298771
110 2 0.51049 0.913235 0.425137
174 2 0.636552 0.7846 0.317893
238 2 0.517268 0.850296 0.448669
302 2 0.745962 0.78193 0.299826
366 2 0.646514 0.942197 0.441419
430 1 0.605124 0.926844 0.294643
494 1 0.594146 0.882403 0.390379
62 2 0.930757 0.865948 0.321656
126 2 0.785519 0.918962 0.432729
190 2 0.858243 0.779604 0.332743
254 2 0.787402 0.861524 0.449984
318 2 0.918196 0.772446 0.312721
382 2 0.861881 0.925982 0.439453
446 1 0.810603 0.940627 0.258522
510 1 0.922697 0.83145 0.436704
3 2 0.223492 0.150095 0.563764
67 2 0.0763784 0.22151 0.684177
131 2 0.116401 0.0666983 0.56779
195 2 0.0617781 0.118056 0.698967
259 2 0.22093 0.0870792 0.558776
323 2 0.157102 0.221417 0.698875
387 1 0.0715522 0.153656 0.530617
451 1 0.13963 0.0720848 0.657856
19 2 0.48355 0.153244 0.563972
83 2 0.248823 0.245211 0.677333
147 2 0.3513 0.0705571 0.582885
211 2 0.288943 0.12535 0.678771
275 2 0.473454 0.0531628 0.546279
339 2 0.366266 0.224353 0.67696
403 1 0.398886 0.134048 0.529691
467 1 0.363849 0.136296 0.703722
35 2 0.72716 0.156713 0.580384
99 2 0.499801 0.245826 0.670454
163 2 0.60012 0.0661391 0.572325
227 2 0.529733 0.12206 0.673647
291 2 0.730539 0.0660207 0.559623
355 2 0.63628 0.225762 0.679251
419 1 0.629939 0.122149 0.509902
483 1 0.632179 0.143393 0.692628
51 2 0.932526 0.178136 0.577458
115 2 0.767205 0.240894 0.67234
179 2 0.823189 0.0680224 0.578598
243 2 0.790153 0.128144 0.684429
307 2 0.935122 0.0478898 0.563895
371 2 0.876595 0.240155 0.693208
435 1 0.878435 0.137429 0.481822
499 1 0.91017 0.133821 0.660703
7 2 0.224188 0.374492 0.554089
71 2 0.0617405 0.472232 0.696101
135 2 0.126813 0.299427 0.551493
199 2 0.0491665 0.349098 0.703007
263 2 0.25307 0.252289 0.565352
327 2 0.160654 0.481218 0.698268
391 1 0.0856437 0.381852 0.566532
455 1 0.119687 0.384895 0.699907
23 2 0.490557 0.375468 0.554376
87 2 0.248014 0.505773 0.672705
151 2 0.364374 0.253649 0.557943
215 2 0.274295 0.364183 0.677424
279 2 0.515593 0.252192 0.557265
343 2 0.363709 0.482497 0.674622
407 1 0.417013 0.34475 0.571283
471 1 0.36732 0.369313 0.737192
39 2 0.756647 0.36645 0.56219
103 2 0.496409 0.501385 0.672132
167 2 0.632266 0.253378 0.56036
231 2 0.516606 0.369017 0.680938
295 2 0.750692 0.25429 0.562474
359 2 0.638163 0.479425 0.674203
423 1 0.652267 0.333708 0.564222
487 1 0.637981 0.406141 0.72479
55 2 0.929629 0.393208 0.566602
119 2 0.757822 0.4997 0.671632
183 2 0.852738 0.261974 0.570152
247 2 0.783546 0.370759 0.688065
311 2 0.915135 0.237483 0.561289
375 2 0.860076 0.490755 0.682882
439 1 0.890086 0.376594 0.493584
503 1 0.860637 0.369366 0.726718
11 2 0.233494 0.636949 0.550942
75 2 0.0617847 0.727951 0.692569
139 2 0.124331 0.546248 0.548792
203 2 0.0614417 0.599222 0.69458
267 2 0.24429 0.505463 0.565194
331 2 0.155252 0.724454 0.712053
395 1 0.079267 0.670393 0.554193
459 1 0.115508 0.618713 0.683534
27 2 0.491707 0.634775 0.554429
91 2 0.253519 0.741312 0.686804
155 2 0.384451 0.514664 0.54503
219 2 0.2755 0.636228 0.677432
283 2 0.498257 0.497264 0.565543
347 2 0.363975 0.72202 0.67859
411 1 0.410109 0.581365 0.569655
475 1 0.357965 0.655216 0.710129
43 2 0.726321 0.627436 0.560831
107 2 0.503561 0.740402 0.679843
171 2 0.628728 0.508746 0.555501
235 2 0.517202 0.635996 0.676892
299 2 0.741591 0.501644 0.558333
363 2 0.650328 0.719819 0.681477
427 1 0.636244 0.574196 0.570569
491 1 0.621032 0.660585 0.720716
59 2 0.933766 0.645127 0.570008
123 2 0.773579 0.740444 0.685395
187 2 0.851271 0.512004 0.554818
251 2 0.785838 0.642666 0.678319
315 2 0.918178 0.49178 0.556175
379 2 0.865942 0.723489 0.692216
443 1 0.876143 0.601139 0.508256
507 1 0.913806 0.612994 0.700157
15 2 0.228469 0.878605 0.558621
79 2 0.0551415 0.935718 0.688432
143 2 0.133417 0.796488 0.557421
207 2 0.0642794 0.817766 0.704489
271 2 0.233419 0.753263 0.563469
335 2 0.185388 0.940545 0.705303
399 1 0.0755586 0.920211 0.534986
463 1 0.128278 0.865483 0.649754
31 2 0.475149 0.863313 0.555854
95 2 0.248822 0.91903 0.665843
159 2 0.383957 0.772876 0.549256
223 2 0.277233 0.847964 0.707344
287 2 0.495078 0.751595 0.564988
351 2 0.399787 0.942636 0.699542
415 1 0.387466 0.913895 0.568222
479 1 0.346417 0.881036 0.712764
47 2 0.703347 0.868764 0.556934
111 2 0.501985 0.912009 0.676474
175 2 0.638874 0.769576 0.557948
239 2 0.522152 0.841831 0.694846
303 2 0.74096 0.762652 0.562732
367 2 0.65075 0.943684 0.694785
431 1 0.623372 0.916734 0.561075
495 1 0.58351 0.884675 0.706991
63 2 0.928574 0.870215 0.56444
127 2 0.785492 0.923778 0.691596
191 2 0.850558 0.776157 0.563708
255 2 0.786979 0.850759 0.694746
319 2 0.923485 0.774491 0.567182
383 2 0.854679 0.929451 0.694236
447 1 0.834434 0.938036 0.516255
511 1 0.91935 0.831756 0.673912
4 2 0.233281 0.121848 0.816872
68 2 0.100818 0.210229 0.893556
132 2 0.103714 0.0786622 0.807888
196 2 0.0849343 0.0901772 0.889192