ITEM: TIMESTEP
0
ITEM: NUMBER OF ATOMS
1053
ITEM: BOX BOUNDS pp pp pp
-2.5075639999999999e+00 1.7292435000000001e+01
-2.5075639999999999e+00 1.7292435000000001e+01
-1.3426453000000000e+01 9.2373549999999994e+01
ITEM: ATOMS id type xs ys zs
1 1 0.126645 0.126645 0.126904
10 1 0.375635 0.126645 0.126904
19 1 0.624624 0.126645 0.126904
4 1 0.126645 0.375635 0.126904
13 1 0.375635 0.375635 0.126904
622 2 0.209641 0.292638 0.130429
631 2 0.458631 0.292638 0.130429
22 1 0.624624 0.375635 0.126904
640 2 0.707621 0.292638 0.130429
625 2 0.209641 0.541628 0.130429
634 2 0.458631 0.541628 0.130429
643 2 0.707621 0.541628 0.130429
7 1 0.126645 0.624624 0.126904
16 1 0.375635 0.624624 0.126904
628 2 0.209641 0.790618 0.130429
637 2 0.458631 0.790618 0.130429
25 1 0.624624 0.624624 0.126904
646 2 0.707621 0.790618 0.130429
109 1 0.2099 0.168273 0.145998
163 1 0.334007 0.168273 0.145998
118 1 0.45889 0.168273 0.145998
172 1 0.582997 0.168273 0.145998
127 1 0.70788 0.168273 0.145998
181 1 0.831987 0.168273 0.145998
136 1 0.334007 0.292379 0.145998
676 2 0.209641 0.292638 0.156152
145 1 0.582997 0.292379 0.145998
685 2 0.458631 0.292638 0.156152
694 2 0.707621 0.292638 0.156152
154 1 0.831987 0.292379 0.145998
112 1 0.2099 0.417262 0.145998
139 1 0.334007 0.541369 0.145998
166 1 0.334007 0.417262 0.145998
679 2 0.209641 0.541628 0.156152
121 1 0.45889 0.417262 0.145998
148 1 0.582997 0.541369 0.145998
175 1 0.582997 0.417262 0.145998
688 2 0.458631 0.541628 0.156152
130 1 0.70788 0.417262 0.145998
697 2 0.707621 0.541628 0.156152
157 1 0.831987 0.541369 0.145998
184 1 0.831987 0.417262 0.145998
115 1 0.2099 0.666252 0.145998
142 1 0.334007 0.790359 0.145998
169 1 0.334007 0.666252 0.145998
682 2 0.209641 0.790618 0.156152
124 1 0.45889 0.666252 0.145998
151 1 0.582997 0.790359 0.145998
178 1 0.582997 0.666252 0.145998
691 2 0.458631 0.790618 0.156152
133 1 0.70788 0.666252 0.145998
700 2 0.707621 0.790618 0.156152
160 1 0.831987 0.790359 0.145998
187 1 0.831987 0.666252 0.145998
568 2 0.126645 0.126645 0.168413
55 1 0.334266 0.168013 0.191112
82 1 0.209382 0.168013 0.191112
577 2 0.375635 0.126645 0.168413
64 1 0.583256 0.168013 0.191112
91 1 0.458372 0.168013 0.191112
100 1 0.707362 0.168013 0.191112
586 2 0.624624 0.126645 0.168413
73 1 0.832246 0.168013 0.191112
571 2 0.126645 0.375635 0.168413
28 1 0.334266 0.292897 0.191112
580 2 0.375635 0.375635 0.168413
595 2 0.292638 0.209641 0.168697
703 2 0.209641 0.292638 0.180958
37 1 0.583256 0.292897 0.191112
604 2 0.541628 0.209641 0.168697
712 2 0.458631 0.292638 0.180958
589 2 0.624624 0.375635 0.168413
613 2 0.790618 0.209641 0.168697
721 2 0.707621 0.292638 0.180958
46 1 0.832246 0.292897 0.191112
31 1 0.334266 0.541887 0.191112
58 1 0.334266 0.417003 0.191112
85 1 0.209382 0.417003 0.191112
598 2 0.292638 0.458631 0.168697
706 2 0.209641 0.541628 0.180958
40 1 0.583256 0.541887 0.191112
67 1 0.583256 0.417003 0.191112
94 1 0.458372 0.417003 0.191112
607 2 0.541628 0.458631 0.168697
715 2 0.458631 0.541628 0.180958
103 1 0.707362 0.417003 0.191112
616 2 0.790618 0.458631 0.168697
724 2 0.707621 0.541628 0.180958
49 1 0.832246 0.541887 0.191112
76 1 0.832246 0.417003 0.191112
574 2 0.126645 0.624624 0.168413
34 1 0.334266 0.790877 0.191112
61 1 0.334266 0.665993 0.191112
88 1 0.209382 0.665993 0.191112
583 2 0.375635 0.624624 0.168413
601 2 0.292638 0.707621 0.168697
709 2 0.209641 0.790618 0.180958
43 1 0.583256 0.790877 0.191112
70 1 0.583256 0.665993 0.191112
97 1 0.458372 0.665993 0.191112
610 2 0.541628 0.707621 0.168697
718 2 0.458631 0.790618 0.180958
106 1 0.707362 0.665993 0.191112
592 2 0.624624 0.624624 0.168413
619 2 0.790618 0.707621 0.168697
727 2 0.707621 0.790618 0.180958
52 1 0.832246 0.790877 0.191112
79 1 0.832246 0.665993 0.191112
784 2 0.126645 0.126645 0.21373
793 2 0.375635 0.126645 0.21373
802 2 0.624624 0.126645 0.21373
298 1 0.126904 0.251269 0.2293
787 2 0.126645 0.375635 0.21373
190 1 0.292638 0.209641 0.210206
307 1 0.375894 0.251269 0.2293
325 1 0.25101 0.375375 0.2293
352 1 0.25101 0.251269 0.2293
649 2 0.209641 0.292638 0.206681
796 2 0.375635 0.375635 0.21373
199 1 0.541628 0.209641 0.210206
334 1 0.5 0.375375 0.2293
361 1 0.5 0.251269 0.2293
658 2 0.458631 0.292638 0.206681
208 1 0.790618 0.209641 0.210206
316 1 0.624884 0.251269 0.2293
343 1 0.74899 0.375375 0.2293
370 1 0.74899 0.251269 0.2293
667 2 0.707621 0.292638 0.206681
805 2 0.624624 0.375635 0.21373
301 1 0.126904 0.500259 0.2293
193 1 0.292638 0.458631 0.210206
310 1 0.375894 0.500259 0.2293
355 1 0.25101 0.500259 0.2293
652 2 0.209641 0.541628 0.206681
202 1 0.541628 0.458631 0.210206
364 1 0.5 0.500259 0.2293
661 2 0.458631 0.541628 0.206681
211 1 0.790618 0.458631 0.210206
319 1 0.624884 0.500259 0.2293
373 1 0.74899 0.500259 0.2293
670 2 0.707621 0.541628 0.206681
304 1 0.126904 0.749249 0.2293
790 2 0.126645 0.624624 0.21373
196 1 0.292638 0.707621 0.210206
313 1 0.375894 0.749249 0.2293
328 1 0.25101 0.624365 0.2293
358 1 0.25101 0.749249 0.2293
655 2 0.209641 0.790618 0.206681
799 2 0.375635 0.624624 0.21373
205 1 0.541628 0.707621 0.210206
337 1 0.5 0.624365 0.2293
367 1 0.5 0.749249 0.2293
664 2 0.458631 0.790618 0.206681
214 1 0.790618 0.707621 0.210206
322 1 0.624884 0.749249 0.2293
346 1 0.74899 0.624365 0.2293
376 1 0.74899 0.749249 0.2293
673 2 0.707621 0.790618 0.206681
808 2 0.624624 0.624624 0.21373
331 1 0.25101 0.873355 0.2293
340 1 0.5 0.873355 0.2293
349 1 0.74899 0.873355 0.2293
838 2 0.126645 0.126645 0.239454
865 2 0.126645 0.126645 0.26426
847 2 0.375635 0.126645 0.239454
874 2 0.375635 0.126645 0.26426
856 2 0.624624 0.126645 0.239454
883 2 0.624624 0.126645 0.26426
841 2 0.126645 0.375635 0.239454
868 2 0.126645 0.375635 0.26426
730 2 0.292638 0.209641 0.251715
757 2 0.209641 0.292638 0.251998
850 2 0.375635 0.375635 0.239454
877 2 0.375635 0.375635 0.26426
739 2 0.541628 0.209641 0.251715
766 2 0.458631 0.292638 0.251998
748 2 0.790618 0.209641 0.251715
775 2 0.707621 0.292638 0.251998
859 2 0.624624 0.375635 0.239454
886 2 0.624624 0.375635 0.26426
733 2 0.292638 0.458631 0.251715
760 2 0.209641 0.541628 0.251998
742 2 0.541628 0.458631 0.251715
769 2 0.458631 0.541628 0.251998
751 2 0.790618 0.458631 0.251715
778 2 0.707621 0.541628 0.251998
844 2 0.126645 0.624624 0.239454
871 2 0.126645 0.624624 0.26426
736 2 0.292638 0.707621 0.251715
763 2 0.209641 0.790618 0.251998
853 2 0.375635 0.624624 0.239454
880 2 0.375635 0.624624 0.26426
745 2 0.541628 0.707621 0.251715
772 2 0.458631 0.790618 0.251998
754 2 0.790618 0.707621 0.251715
781 2 0.707621 0.790618 0.251998
862 2 0.624624 0.624624 0.239454
889 2 0.624624 0.624624 0.26426
811 2 0.126645 0.126645 0.289983
217 1 0.251269 0.126904 0.274414
820 2 0.375635 0.126645 0.289983
226 1 0.500259 0.126904 0.274414
235 1 0.749249 0.126904 0.274414
829 2 0.624624 0.126645 0.289983
814 2 0.126645 0.375635 0.289983
220 1 0.251269 0.375894 0.274414
244 1 0.251269 0.25101 0.274414
271 1 0.375375 0.25101 0.274414
379 1 0.209641 0.292638 0.293508
823 2 0.375635 0.375635 0.289983
946 2 0.292638 0.209641 0.297032
229 1 0.500259 0.375894 0.274414
253 1 0.500259 0.25101 0.274414
388 1 0.458631 0.292638 0.293508
955 2 0.541628 0.209641 0.297032
238 1 0.749249 0.375894 0.274414
262 1 0.749249 0.25101 0.274414
280 1 0.624365 0.25101 0.274414
397 1 0.707621 0.292638 0.293508
832 2 0.624624 0.375635 0.289983
964 2 0.790618 0.209641 0.297032
289 1 0.873355 0.25101 0.274414
247 1 0.251269 0.5 0.274414
274 1 0.375375 0.5 0.274414
382 1 0.209641 0.541628 0.293508
949 2 0.292638 0.458631 0.297032
256 1 0.500259 0.5 0.274414
391 1 0.458631 0.541628 0.293508
958 2 0.541628 0.458631 0.297032
265 1 0.749249 0.5 0.274414
283 1 0.624365 0.5 0.274414
400 1 0.707621 0.541628 0.293508
967 2 0.790618 0.458631 0.297032
292 1 0.873355 0.5 0.274414
817 2 0.126645 0.624624 0.289983
223 1 0.251269 0.624884 0.274414
250 1 0.251269 0.74899 0.274414
277 1 0.375375 0.74899 0.274414
385 1 0.209641 0.790618 0.293508
826 2 0.375635 0.624624 0.289983
952 2 0.292638 0.707621 0.297032
232 1 0.500259 0.624884 0.274414
259 1 0.500259 0.74899 0.274414
394 1 0.458631 0.790618 0.293508
961 2 0.541628 0.707621 0.297032
241 1 0.749249 0.624884 0.274414
268 1 0.749249 0.74899 0.274414
286 1 0.624365 0.74899 0.274414
403 1 0.707621 0.790618 0.293508
835 2 0.624624 0.624624 0.289983
970 2 0.790618 0.707621 0.297032
295 1 0.873355 0.74899 0.274414
514 1 0.168013 0.209382 0.312602
541 1 0.168013 0.334266 0.312602
487 1 0.292897 0.334266 0.312602
1000 2 0.292638 0.209641 0.322756
496 1 0.541887 0.334266 0.312602
523 1 0.417003 0.209382 0.312602
550 1 0.417003 0.334266 0.312602
1009 2 0.541628 0.209641 0.322756
505 1 0.790877 0.334266 0.312602
532 1 0.665993 0.209382 0.312602
559 1 0.665993 0.334266 0.312602
1018 2 0.790618 0.209641 0.322756
517 1 0.168013 0.458372 0.312602
544 1 0.168013 0.583256 0.312602
490 1 0.292897 0.583256 0.312602
1003 2 0.292638 0.458631 0.322756
499 1 0.541887 0.583256 0.312602
526 1 0.417003 0.458372 0.312602
553 1 0.417003 0.583256 0.312602
1012 2 0.541628 0.458631 0.322756
508 1 0.790877 0.583256 0.312602
535 1 0.665993 0.458372 0.312602
562 1 0.665993 0.583256 0.312602
1021 2 0.790618 0.458631 0.322756
520 1 0.168013 0.707362 0.312602
1006 2 0.292638 0.707621 0.322756
529 1 0.417003 0.707362 0.312602
1015 2 0.541628 0.707621 0.322756
538 1 0.665993 0.707362 0.312602
1024 2 0.790618 0.707621 0.322756
547 1 0.168013 0.832246 0.312602
493 1 0.292897 0.832246 0.312602
502 1 0.541887 0.832246 0.312602
556 1 0.417003 0.832246 0.312602
511 1 0.790877 0.832246 0.312602
565 1 0.665993 0.832246 0.312602
919 2 0.126645 0.126645 0.3353
928 2 0.375635 0.126645 0.3353
937 2 0.624624 0.126645 0.3353
406 1 0.168273 0.2099 0.357716
433 1 0.168273 0.334007 0.357716
922 2 0.126645 0.375635 0.3353
460 1 0.292379 0.334007 0.357716
892 2 0.209641 0.292638 0.335017
931 2 0.375635 0.375635 0.3353
1027 2 0.292638 0.209641 0.347561
415 1 0.417262 0.2099 0.357716
442 1 0.417262 0.334007 0.357716
469 1 0.541369 0.334007 0.357716
901 2 0.458631 0.292638 0.335017
1036 2 0.541628 0.209641 0.347561
424 1 0.666252 0.2099 0.357716
451 1 0.666252 0.334007 0.357716
478 1 0.790359 0.334007 0.357716
910 2 0.707621 0.292638 0.335017
940 2 0.624624 0.375635 0.3353
1045 2 0.790618 0.209641 0.347561
409 1 0.168273 0.45889 0.357716
436 1 0.168273 0.582997 0.357716
463 1 0.292379 0.582997 0.357716
895 2 0.209641 0.541628 0.335017
1030 2 0.292638 0.458631 0.347561
418 1 0.417262 0.45889 0.357716
445 1 0.417262 0.582997 0.357716
472 1 0.541369 0.582997 0.357716
904 2 0.458631 0.541628 0.335017
1039 2 0.541628 0.458631 0.347561
427 1 0.666252 0.45889 0.357716
454 1 0.666252 0.582997 0.357716
481 1 0.790359 0.582997 0.357716
913 2 0.707621 0.541628 0.335017
1048 2 0.790618 0.458631 0.347561
412 1 0.168273 0.70788 0.357716
925 2 0.126645 0.624624 0.3353
898 2 0.209641 0.790618 0.335017
934 2 0.375635 0.624624 0.3353
1033 2 0.292638 0.707621 0.347561
421 1 0.417262 0.70788 0.357716
907 2 0.458631 0.790618 0.335017
1042 2 0.541628 0.707621 0.347561
430 1 0.666252 0.70788 0.357716
916 2 0.707621 0.790618 0.335017
943 2 0.624624 0.624624 0.3353
1051 2 0.790618 0.707621 0.347561
439 1 0.168273 0.831987 0.357716
466 1 0.292379 0.831987 0.357716
448 1 0.417262 0.831987 0.357716
475 1 0.541369 0.831987 0.357716
457 1 0.666252 0.831987 0.357716
484 1 0.790359 0.831987 0.357716
2 1 0.126645 0.126645 0.37681
11 1 0.375635 0.126645 0.37681
110 1 0.2099 0.168273 0.395904
164 1 0.334007 0.168273 0.395904
119 1 0.45889 0.168273 0.395904
173 1 0.582997 0.168273 0.395904
20 1 0.624624 0.126645 0.37681
128 1 0.70788 0.168273 0.395904
182 1 0.831987 0.168273 0.395904
5 1 0.126645 0.375635 0.37681
14 1 0.375635 0.375635 0.37681
137 1 0.334007 0.292379 0.395904
623 2 0.209641 0.292638 0.380334
973 2 0.292638 0.209641 0.373285
146 1 0.582997 0.292379 0.395904
632 2 0.458631 0.292638 0.380334
982 2 0.541628 0.209641 0.373285
23 1 0.624624 0.375635 0.37681
641 2 0.707621 0.292638 0.380334
991 2 0.790618 0.209641 0.373285
155 1 0.831987 0.292379 0.395904
113 1 0.2099 0.417262 0.395904
140 1 0.334007 0.541369 0.395904
167 1 0.334007 0.417262 0.395904
626 2 0.209641 0.541628 0.380334
976 2 0.292638 0.458631 0.373285
122 1 0.45889 0.417262 0.395904
149 1 0.582997 0.541369 0.395904
176 1 0.582997 0.417262 0.395904
635 2 0.458631 0.541628 0.380334
985 2 0.541628 0.458631 0.373285
131 1 0.70788 0.417262 0.395904
644 2 0.707621 0.541628 0.380334
994 2 0.790618 0.458631 0.373285
158 1 0.831987 0.541369 0.395904
185 1 0.831987 0.417262 0.395904
8 1 0.126645 0.624624 0.37681
17 1 0.375635 0.624624 0.37681
116 1 0.2099 0.666252 0.395904
143 1 0.334007 0.790359 0.395904
170 1 0.334007 0.666252 0.395904
629 2 0.209641 0.790618 0.380334
979 2 0.292638 0.707621 0.373285
125 1 0.45889 0.666252 0.395904
152 1 0.582997 0.790359 0.395904
179 1 0.582997 0.666252 0.395904
638 2 0.458631 0.790618 0.380334
988 2 0.541628 0.707621 0.373285
26 1 0.624624 0.624624 0.37681
134 1 0.70788 0.666252 0.395904
647 2 0.707621 0.790618 0.380334
997 2 0.790618 0.707621 0.373285
161 1 0.831987 0.790359 0.395904
188 1 0.831987 0.666252 0.395904
569 2 0.126645 0.126645 0.418319
578 2 0.375635 0.126645 0.418319
587 2 0.624624 0.126645 0.418319
572 2 0.126645 0.375635 0.418319
581 2 0.375635 0.375635 0.418319
596 2 0.292638 0.209641 0.418602
677 2 0.209641 0.292638 0.406058
704 2 0.209641 0.292638 0.430863
605 2 0.541628 0.209641 0.418602
686 2 0.458631 0.292638 0.406058
713 2 0.458631 0.292638 0.430863
590 2 0.624624 0.375635 0.418319
614 2 0.790618 0.209641 0.418602
695 2 0.707621 0.292638 0.406058
722 2 0.707621 0.292638 0.430863
599 2 0.292638 0.458631 0.418602
680 2 0.209641 0.541628 0.406058
707 2 0.209641 0.541628 0.430863
608 2 0.541628 0.458631 0.418602
689 2 0.458631 0.541628 0.406058
716 2 0.458631 0.541628 0.430863
617 2 0.790618 0.458631 0.418602
698 2 0.707621 0.541628 0.406058
725 2 0.707621 0.541628 0.430863
575 2 0.126645 0.624624 0.418319
584 2 0.375635 0.624624 0.418319
602 2 0.292638 0.707621 0.418602
683 2 0.209641 0.790618 0.406058
710 2 0.209641 0.790618 0.430863
611 2 0.541628 0.707621 0.418602
692 2 0.458631 0.790618 0.406058
719 2 0.458631 0.790618 0.430863
593 2 0.624624 0.624624 0.418319
620 2 0.790618 0.707621 0.418602
701 2 0.707621 0.790618 0.406058
728 2 0.707621 0.790618 0.430863
785 2 0.126645 0.126645 0.463636
56 1 0.334266 0.168013 0.441017
83 1 0.209382 0.168013 0.441017
794 2 0.375635 0.126645 0.463636
65 1 0.583256 0.168013 0.441017
92 1 0.458372 0.168013 0.441017
101 1 0.707362 0.168013 0.441017
803 2 0.624624 0.126645 0.463636
74 1 0.832246 0.168013 0.441017
788 2 0.126645 0.375635 0.463636
29 1 0.334266 0.292897 0.441017
191 1 0.292638 0.209641 0.460111
650 2 0.209641 0.292638 0.456587
797 2 0.375635 0.375635 0.463636
38 1 0.583256 0.292897 0.441017
200 1 0.541628 0.209641 0.460111
659 2 0.458631 0.292638 0.456587
209 1 0.790618 0.209641 0.460111
668 2 0.707621 0.292638 0.456587
806 2 0.624624 0.375635 0.463636
47 1 0.832246 0.292897 0.441017
32 1 0.334266 0.541887 0.441017
59 1 0.334266 0.417003 0.441017
86 1 0.209382 0.417003 0.441017
194 1 0.292638 0.458631 0.460111
653 2 0.209641 0.541628 0.456587
41 1 0.583256 0.541887 0.441017
68 1 0.583256 0.417003 0.441017
95 1 0.458372 0.417003 0.441017
203 1 0.541628 0.458631 0.460111
662 2 0.458631 0.541628 0.456587
104 1 0.707362 0.417003 0.441017
212 1 0.790618 0.458631 0.460111
671 2 0.707621 0.541628 0.456587
50 1 0.832246 0.541887 0.441017
77 1 0.832246 0.417003 0.441017
791 2 0.126645 0.624624 0.463636
35 1 0.334266 0.790877 0.441017
62 1 0.334266 0.665993 0.441017
89 1 0.209382 0.665993 0.441017
197 1 0.292638 0.707621 0.460111
656 2 0.209641 0.790618 0.456587
800 2 0.375635 0.624624 0.463636
44 1 0.583256 0.790877 0.441017
71 1 0.583256 0.665993 0.441017
98 1 0.458372 0.665993 0.441017
206 1 0.541628 0.707621 0.460111
665 2 0.458631 0.790618 0.456587
107 1 0.707362 0.665993 0.441017
215 1 0.790618 0.707621 0.460111
674 2 0.707621 0.790618 0.456587
809 2 0.624624 0.624624 0.463636
53 1 0.832246 0.790877 0.441017
80 1 0.832246 0.665993 0.441017
839 2 0.126645 0.126645 0.489359
848 2 0.375635 0.126645 0.489359
857 2 0.624624 0.126645 0.489359
299 1 0.126904 0.251269 0.479205
842 2 0.126645 0.375635 0.489359
308 1 0.375894 0.251269 0.479205
326 1 0.25101 0.375375 0.479205
353 1 0.25101 0.251269 0.479205
851 2 0.375635 0.375635 0.489359
335 1 0.5 0.375375 0.479205
362 1 0.5 0.251269 0.479205
317 1 0.624884 0.251269 0.479205
344 1 0.74899 0.375375 0.479205
371 1 0.74899 0.251269 0.479205
860 2 0.624624 0.375635 0.489359
302 1 0.126904 0.500259 0.479205
311 1 0.375894 0.500259 0.479205
356 1 0.25101 0.500259 0.479205
365 1 0.5 0.500259 0.479205
320 1 0.624884 0.500259 0.479205
374 1 0.74899 0.500259 0.479205
305 1 0.126904 0.749249 0.479205
845 2 0.126645 0.624624 0.489359
314 1 0.375894 0.749249 0.479205
329 1 0.25101 0.624365 0.479205
359 1 0.25101 0.749249 0.479205
854 2 0.375635 0.624624 0.489359
338 1 0.5 0.624365 0.479205
368 1 0.5 0.749249 0.479205
323 1 0.624884 0.749249 0.479205
347 1 0.74899 0.624365 0.479205
377 1 0.74899 0.749249 0.479205
863 2 0.624624 0.624624 0.489359
332 1 0.25101 0.873355 0.479205
341 1 0.5 0.873355 0.479205
350 1 0.74899 0.873355 0.479205
866 2 0.126645 0.126645 0.514165
218 1 0.251269 0.126904 0.524319
875 2 0.375635 0.126645 0.514165
227 1 0.500259 0.126904 0.524319
236 1 0.749249 0.126904 0.524319
884 2 0.624624 0.126645 0.514165
869 2 0.126645 0.375635 0.514165
221 1 0.251269 0.375894 0.524319
245 1 0.251269 0.25101 0.524319
272 1 0.375375 0.25101 0.524319
731 2 0.292638 0.209641 0.501621
758 2 0.209641 0.292638 0.501904
878 2 0.375635 0.375635 0.514165
230 1 0.500259 0.375894 0.524319
254 1 0.500259 0.25101 0.524319
740 2 0.541628 0.209641 0.501621
767 2 0.458631 0.292638 0.501904
239 1 0.749249 0.375894 0.524319
263 1 0.749249 0.25101 0.524319
281 1 0.624365 0.25101 0.524319
749 2 0.790618 0.209641 0.501621
776 2 0.707621 0.292638 0.501904
887 2 0.624624 0.375635 0.514165
290 1 0.873355 0.25101 0.524319
248 1 0.251269 0.5 0.524319
275 1 0.375375 0.5 0.524319
734 2 0.292638 0.458631 0.501621
761 2 0.209641 0.541628 0.501904
257 1 0.500259 0.5 0.524319
743 2 0.541628 0.458631 0.501621
770 2 0.458631 0.541628 0.501904
266 1 0.749249 0.5 0.524319
284 1 0.624365 0.5 0.524319
752 2 0.790618 0.458631 0.501621
779 2 0.707621 0.541628 0.501904
293 1 0.873355 0.5 0.524319
872 2 0.126645 0.624624 0.514165
224 1 0.251269 0.624884 0.524319
251 1 0.251269 0.74899 0.524319
278 1 0.375375 0.74899 0.524319
737 2 0.292638 0.707621 0.501621
764 2 0.209641 0.790618 0.501904
881 2 0.375635 0.624624 0.514165
233 1 0.500259 0.624884 0.524319
260 1 0.500259 0.74899 0.524319
746 2 0.541628 0.707621 0.501621
773 2 0.458631 0.790618 0.501904
242 1 0.749249 0.624884 0.524319
269 1 0.749249 0.74899 0.524319
287 1 0.624365 0.74899 0.524319
755 2 0.790618 0.707621 0.501621
782 2 0.707621 0.790618 0.501904
890 2 0.624624 0.624624 0.514165
296 1 0.873355 0.74899 0.524319
812 2 0.126645 0.126645 0.539889
821 2 0.375635 0.126645 0.539889
830 2 0.624624 0.126645 0.539889
515 1 0.168013 0.209382 0.562507
542 1 0.168013 0.334266 0.562507
815 2 0.126645 0.375635 0.539889
380 1 0.209641 0.292638 0.543413
488 1 0.292897 0.334266 0.562507
824 2 0.375635 0.375635 0.539889
947 2 0.292638 0.209641 0.546938
389 1 0.458631 0.292638 0.543413
497 1 0.541887 0.334266 0.562507
524 1 0.417003 0.209382 0.562507
551 1 0.417003 0.334266 0.562507
956 2 0.541628 0.209641 0.546938
398 1 0.707621 0.292638 0.543413
506 1 0.790877 0.334266 0.562507
533 1 0.665993 0.209382 0.562507
560 1 0.665993 0.334266 0.562507
833 2 0.624624 0.375635 0.539889
965 2 0.790618 0.209641 0.546938
518 1 0.168013 0.458372 0.562507
545 1 0.168013 0.583256 0.562507
383 1 0.209641 0.541628 0.543413
491 1 0.292897 0.583256 0.562507
950 2 0.292638 0.458631 0.546938
392 1 0.458631 0.541628 0.543413
500 1 0.541887 0.583256 0.562507
527 1 0.417003 0.458372 0.562507
554 1 0.417003 0.583256 0.562507
959 2 0.541628 0.458631 0.546938
401 1 0.707621 0.541628 0.543413
509 1 0.790877 0.583256 0.562507
536 1 0.665993 0.458372 0.562507
563 1 0.665993 0.583256 0.562507
968 2 0.790618 0.458631 0.546938
521 1 0.168013 0.707362 0.562507
818 2 0.126645 0.624624 0.539889
386 1 0.209641 0.790618 0.543413
827 2 0.375635 0.624624 0.539889
953 2 0.292638 0.707621 0.546938
395 1 0.458631 0.790618 0.543413
530 1 0.417003 0.707362 0.562507
962 2 0.541628 0.707621 0.546938
404 1 0.707621 0.790618 0.543413
539 1 0.665993 0.707362 0.562507
836 2 0.624624 0.624624 0.539889
971 2 0.790618 0.707621 0.546938
548 1 0.168013 0.832246 0.562507
494 1 0.292897 0.832246 0.562507
503 1 0.541887 0.832246 0.562507
557 1 0.417003 0.832246 0.562507
512 1 0.790877 0.832246 0.562507
566 1 0.665993 0.832246 0.562507
920 2 0.126645 0.126645 0.585206
929 2 0.375635 0.126645 0.585206
938 2 0.624624 0.126645 0.585206
923 2 0.126645 0.375635 0.585206
893 2 0.209641 0.292638 0.584923
932 2 0.375635 0.375635 0.585206
1001 2 0.292638 0.209641 0.572661
1028 2 0.292638 0.209641 0.597467
902 2 0.458631 0.292638 0.584923
1010 2 0.541628 0.209641 0.572661
1037 2 0.541628 0.209641 0.597467
911 2 0.707621 0.292638 0.584923
941 2 0.624624 0.375635 0.585206
1019 2 0.790618 0.209641 0.572661
1046 2 0.790618 0.209641 0.597467
896 2 0.209641 0.541628 0.584923
1004 2 0.292638 0.458631 0.572661
1031 2 0.292638 0.458631 0.597467
905 2 0.458631 0.541628 0.584923
1013 2 0.541628 0.458631 0.572661
1040 2 0.541628 0.458631 0.597467
914 2 0.707621 0.541628 0.584923
1022 2 0.790618 0.458631 0.572661
1049 2 0.790618 0.458631 0.597467
926 2 0.126645 0.624624 0.585206
899 2 0.209641 0.790618 0.584923
935 2 0.375635 0.624624 0.585206
1007 2 0.292638 0.707621 0.572661
1034 2 0.292638 0.707621 0.597467
908 2 0.458631 0.790618 0.584923
1016 2 0.541628 0.707621 0.572661
1043 2 0.541628 0.707621 0.597467
917 2 0.707621 0.790618 0.584923
944 2 0.624624 0.624624 0.585206
1025 2 0.790618 0.707621 0.572661
1052 2 0.790618 0.707621 0.597467
3 1 0.126645 0.126645 0.626715
12 1 0.375635 0.126645 0.626715
21 1 0.624624 0.126645 0.626715
6 1 0.126645 0.375635 0.626715
407 1 0.168273 0.2099 0.607621
434 1 0.168273 0.334007 0.607621
15 1 0.375635 0.375635 0.626715
461 1 0.292379 0.334007 0.607621
624 2 0.209641 0.292638 0.63024
974 2 0.292638 0.209641 0.62319
416 1 0.417262 0.2099 0.607621
443 1 0.417262 0.334007 0.607621
470 1 0.541369 0.334007 0.607621
633 2 0.458631 0.292638 0.63024
983 2 0.541628 0.209641 0.62319
24 1 0.624624 0.375635 0.626715
425 1 0.666252 0.2099 0.607621
452 1 0.666252 0.334007 0.607621
479 1 0.790359 0.334007 0.607621
642 2 0.707621 0.292638 0.63024
992 2 0.790618 0.209641 0.62319
410 1 0.168273 0.45889 0.607621
437 1 0.168273 0.582997 0.607621
464 1 0.292379 0.582997 0.607621
627 2 0.209641 0.541628 0.63024
977 2 0.292638 0.458631 0.62319
419 1 0.417262 0.45889 0.607621
446 1 0.417262 0.582997 0.607621
473 1 0.541369 0.582997 0.607621
636 2 0.458631 0.541628 0.63024
986 2 0.541628 0.458631 0.62319
428 1 0.666252 0.45889 0.607621
455 1 0.666252 0.582997 0.607621
482 1 0.790359 0.582997 0.607621
645 2 0.707621 0.541628 0.63024
995 2 0.790618 0.458631 0.62319
9 1 0.126645 0.624624 0.626715
413 1 0.168273 0.70788 0.607621
18 1 0.375635 0.624624 0.626715
630 2 0.209641 0.790618 0.63024
980 2 0.292638 0.707621 0.62319
422 1 0.417262 0.70788 0.607621
639 2 0.458631 0.790618 0.63024
989 2 0.541628 0.707621 0.62319
27 1 0.624624 0.624624 0.626715
431 1 0.666252 0.70788 0.607621
648 2 0.707621 0.790618 0.63024
998 2 0.790618 0.707621 0.62319
440 1 0.168273 0.831987 0.607621
467 1 0.292379 0.831987 0.607621
449 1 0.417262 0.831987 0.607621
476 1 0.541369 0.831987 0.607621
458 1 0.666252 0.831987 0.607621
485 1 0.790359 0.831987 0.607621
111 1 0.2099 0.168273 0.645809
165 1 0.334007 0.168273 0.645809
120 1 0.45889 0.168273 0.645809
174 1 0.582997 0.168273 0.645809
129 1 0.70788 0.168273 0.645809
183 1 0.831987 0.168273 0.645809
138 1 0.334007 0.292379 0.645809
678 2 0.209641 0.292638 0.655963
147 1 0.582997 0.292379 0.645809
687 2 0.458631 0.292638 0.655963
696 2 0.707621 0.292638 0.655963
156 1 0.831987 0.292379 0.645809
114 1 0.2099 0.417262 0.645809
141 1 0.334007 0.541369 0.645809
168 1 0.334007 0.417262 0.645809
681 2 0.209641 0.541628 0.655963
123 1 0.45889 0.417262 0.645809
150 1 0.582997 0.541369 0.645809
177 1 0.582997 0.417262 0.645809
690 2 0.458631 0.541628 0.655963
132 1 0.70788 0.417262 0.645809
699 2 0.707621 0.541628 0.655963
159 1 0.831987 0.541369 0.645809
186 1 0.831987 0.417262 0.645809
117 1 0.2099 0.666252 0.645809
144 1 0.334007 0.790359 0.645809
171 1 0.334007 0.666252 0.645809
684 2 0.209641 0.790618 0.655963
126 1 0.45889 0.666252 0.645809
153 1 0.582997 0.790359 0.645809
180 1 0.582997 0.666252 0.645809
693 2 0.458631 0.790618 0.655963
135 1 0.70788 0.666252 0.645809
702 2 0.707621 0.790618 0.655963
162 1 0.831987 0.790359 0.645809
189 1 0.831987 0.666252 0.645809
570 2 0.126645 0.126645 0.668224
57 1 0.334266 0.168013 0.690923
84 1 0.209382 0.168013 0.690923
579 2 0.375635 0.126645 0.668224
66 1 0.583256 0.168013 0.690923
93 1 0.458372 0.168013 0.690923
102 1 0.707362 0.168013 0.690923
588 2 0.624624 0.126645 0.668224
75 1 0.832246 0.168013 0.690923
573 2 0.126645 0.375635 0.668224
30 1 0.334266 0.292897 0.690923
582 2 0.375635 0.375635 0.668224
597 2 0.292638 0.209641 0.668508
705 2 0.209641 0.292638 0.680769
39 1 0.583256 0.292897 0.690923
606 2 0.541628 0.209641 0.668508
714 2 0.458631 0.292638 0.680769
591 2 0.624624 0.375635 0.668224
615 2 0.790618 0.209641 0.668508
723 2 0.707621 0.292638 0.680769
48 1 0.832246 0.292897 0.690923
33 1 0.334266 0.541887 0.690923
60 1 0.334266 0.417003 0.690923
87 1 0.209382 0.417003 0.690923
600 2 0.292638 0.458631 0.668508
708 2 0.209641 0.541628 0.680769
42 1 0.583256 0.541887 0.690923
69 1 0.583256 0.417003 0.690923
96 1 0.458372 0.417003 0.690923
609 2 0.541628 0.458631 0.668508
717 2 0.458631 0.541628 0.680769
105 1 0.707362 0.417003 0.690923
618 2 0.790618 0.458631 0.668508
726 2 0.707621 0.541628 0.680769
51 1 0.832246 0.541887 0.690923
78 1 0.832246 0.417003 0.690923
576 2 0.126645 0.624624 0.668224
36 1 0.334266 0.790877 0.690923
63 1 0.334266 0.665993 0.690923
90 1 0.209382 0.665993 0.690923
585 2 0.375635 0.624624 0.668224
603 2 0.292638 0.707621 0.668508
711 2 0.209641 0.790618 0.680769
45 1 0.583256 0.790877 0.690923
72 1 0.583256 0.665993 0.690923
99 1 0.458372 0.665993 0.690923
612 2 0.541628 0.707621 0.668508
720 2 0.458631 0.790618 0.680769
108 1 0.707362 0.665993 0.690923
594 2 0.624624 0.624624 0.668224
621 2 0.790618 0.707621 0.668508
729 2 0.707621 0.790618 0.680769
54 1 0.832246 0.790877 0.690923
81 1 0.832246 0.665993 0.690923
786 2 0.126645 0.126645 0.713541
795 2 0.375635 0.126645 0.713541
804 2 0.624624 0.126645 0.713541
300 1 0.126904 0.251269 0.729111
789 2 0.126645 0.375635 0.713541
192 1 0.292638 0.209641 0.710017
309 1 0.375894 0.251269 0.729111
327 1 0.25101 0.375375 0.729111
354 1 0.25101 0.251269 0.729111
651 2 0.209641 0.292638 0.706492
798 2 0.375635 0.375635 0.713541
201 1 0.541628 0.209641 0.710017
336 1 0.5 0.375375 0.729111
363 1 0.5 0.251269 0.729111
660 2 0.458631 0.292638 0.706492
210 1 0.790618 0.209641 0.710017
318 1 0.624884 0.251269 0.729111
345 1 0.74899 0.375375 0.729111
372 1 0.74899 0.251269 0.729111
669 2 0.707621 0.292638 0.706492
807 2 0.624624 0.375635 0.713541
303 1 0.126904 0.500259 0.729111
195 1 0.292638 0.458631 0.710017
312 1 0.375894 0.500259 0.729111
357 1 0.25101 0.500259 0.729111
654 2 0.209641 0.541628 0.706492
204 1 0.541628 0.458631 0.710017
366 1 0.5 0.500259 0.729111
663 2 0.458631 0.541628 0.706492
213 1 0.790618 0.458631 0.710017
321 1 0.624884 0.500259 0.729111
375 1 0.74899 0.500259 0.729111
672 2 0.707621 0.541628 0.706492
306 1 0.126904 0.749249 0.729111
792 2 0.126645 0.624624 0.713541
198 1 0.292638 0.707621 0.710017
315 1 0.375894 0.749249 0.729111
330 1 0.25101 0.624365 0.729111
360 1 0.25101 0.749249 0.729111
657 2 0.209641 0.790618 0.706492
801 2 0.375635 0.624624 0.713541
207 1 0.541628 0.707621 0.710017
339 1 0.5 0.624365 0.729111
369 1 0.5 0.749249 0.729111
666 2 0.458631 0.790618 0.706492
216 1 0.790618 0.707621 0.710017
324 1 0.624884 0.749249 0.729111
348 1 0.74899 0.624365 0.729111
378 1 0.74899 0.749249 0.729111
675 2 0.707621 0.790618 0.706492
810 2 0.624624 0.624624 0.713541
333 1 0.25101 0.873355 0.729111
342 1 0.5 0.873355 0.729111
351 1 0.74899 0.873355 0.729111
840 2 0.126645 0.126645 0.739265
867 2 0.126645 0.126645 0.764071
849 2 0.375635 0.126645 0.739265
876 2 0.375635 0.126645 0.764071
858 2 0.624624 0.126645 0.739265
885 2 0.624624 0.126645 0.764071
843 2 0.126645 0.375635 0.739265
870 2 0.126645 0.375635 0.764071
732 2 0.292638 0.209641 0.751526
759 2 0.209641 0.292638 0.751809
852 2 0.375635 0.375635 0.739265
879 2 0.375635 0.375635 0.764071
741 2 0.541628 0.209641 0.751526
768 2 0.458631 0.292638 0.751809
750 2 0.790618 0.209641 0.751526
777 2 0.707621 0.292638 0.751809
861 2 0.624624 0.375635 0.739265
888 2 0.624624 0.375635 0.764071
735 2 0.292638 0.458631 0.751526
762 2 0.209641 0.541628 0.751809
744 2 0.541628 0.458631 0.751526
771 2 0.458631 0.541628 0.751809
753 2 0.790618 0.458631 0.751526
780 2 0.707621 0.541628 0.751809
846 2 0.126645 0.624624 0.739265
873 2 0.126645 0.624624 0.764071
738 2 0.292638 0.707621 0.751526
765 2 0.209641 0.790618 0.751809
855 2 0.375635 0.624624 0.739265
882 2 0.375635 0.624624 0.764071
747 2 0.541628 0.707621 0.751526
774 2 0.458631 0.790618 0.751809
756 2 0.790618 0.707621 0.751526
783 2 0.707621 0.790618 0.751809
864 2 0.624624 0.624624 0.739265
891 2 0.624624 0.624624 0.764071
813 2 0.126645 0.126645 0.789794
219 1 0.251269 0.126904 0.774225
822 2 0.375635 0.126645 0.789794
228 1 0.500259 0.126904 0.774225
237 1 0.749249 0.126904 0.774225
831 2 0.624624 0.126645 0.789794
816 2 0.126645 0.375635 0.789794
222 1 0.251269 0.375894 0.774225
246 1 0.251269 0.25101 0.774225
273 1 0.375375 0.25101 0.774225
381 1 0.209641 0.292638 0.793319
825 2 0.375635 0.375635 0.789794
948 2 0.292638 0.209641 0.796843
231 1 0.500259 0.375894 0.774225
255 1 0.500259 0.25101 0.774225