ITEM: TIMESTEP
0
ITEM: NUMBER OF ATOMS
1053
ITEM: BOX BOUNDS pp pp pp
-2.5075639999999999e+00 1.7292435000000001e+01
-2.5075639999999999e+00 1.7292435000000001e+01
-1.3426453000000000e+01 9.2373549999999994e+01
ITEM: ATOMS id type xs ys zs
1 1 0.168387 0.17917 0.129544
19 1 0.653271 0.19291 0.122003
10 1 0.382135 0.217618 0.124239
622 2 0.260728 0.252772 0.126905
136 1 0.361541 0.331244 0.131444
631 2 0.479134 0.293962 0.123366
22 1 0.636836 0.383053 0.115787
640 2 0.74687 0.259977 0.127678
145 1 0.606686 0.294781 0.129908
4 1 0.170104 0.452048 0.118724
13 1 0.370091 0.446484 0.12007
625 2 0.266442 0.520657 0.122095
634 2 0.480874 0.507465 0.120569
148 1 0.584758 0.549829 0.132051
643 2 0.6834 0.486353 0.123793
7 1 0.139327 0.696146 0.12306
16 1 0.355602 0.627166 0.116287
628 2 0.253747 0.680777 0.128761
637 2 0.395909 0.741329 0.124477
124 1 0.464682 0.629538 0.128428
151 1 0.522447 0.753835 0.131507
25 1 0.628517 0.620783 0.11549
646 2 0.643234 0.724843 0.126157
109 1 0.226967 0.199028 0.147787
172 1 0.585895 0.187476 0.143982
127 1 0.705884 0.161333 0.140926
586 2 0.667813 0.146893 0.163897
163 1 0.343151 0.218331 0.144511
676 2 0.268775 0.33787 0.151068
118 1 0.46244 0.200788 0.14151
685 2 0.503696 0.321492 0.150309
577 2 0.405764 0.217941 0.165857
694 2 0.666662 0.287692 0.152192
154 1 0.799166 0.320543 0.147183
130 1 0.70527 0.375454 0.134531
181 1 0.816169 0.203748 0.144613
571 2 0.171988 0.446736 0.164079
112 1 0.206101 0.444931 0.139494
139 1 0.37603 0.547184 0.133571
166 1 0.331022 0.441541 0.140073
679 2 0.253437 0.56357 0.149506
580 2 0.399181 0.413967 0.164141
598 2 0.363867 0.452948 0.165177
121 1 0.451408 0.41253 0.135837
175 1 0.591906 0.426591 0.142085
688 2 0.48494 0.537294 0.149698
697 2 0.689579 0.519534 0.152479
157 1 0.783864 0.534516 0.1339
184 1 0.794161 0.439891 0.146278
115 1 0.147397 0.655775 0.144058
142 1 0.322284 0.77708 0.142593
169 1 0.363779 0.657125 0.142447
682 2 0.211852 0.755445 0.153173
583 2 0.374221 0.629142 0.166395
178 1 0.556902 0.654079 0.142871
691 2 0.447785 0.758159 0.151979
133 1 0.689315 0.61364 0.134424
700 2 0.614249 0.758652 0.152928
160 1 0.73135 0.723487 0.143489
187 1 0.789657 0.624515 0.14751
55 1 0.35179 0.172643 0.184708
91 1 0.484805 0.164171 0.185826
604 2 0.556293 0.199493 0.166777
64 1 0.609499 0.134493 0.185056
100 1 0.740359 0.138779 0.184521
73 1 0.854128 0.180653 0.184464
568 2 0.204653 0.237091 0.169632
82 1 0.24718 0.217394 0.192238
28 1 0.361726 0.276302 0.196667
595 2 0.382207 0.252181 0.167139
703 2 0.274548 0.3568 0.181905
712 2 0.498399 0.314487 0.184612
613 2 0.796027 0.23717 0.167863
721 2 0.669612 0.267959 0.18512
67 1 0.608522 0.397876 0.19255
103 1 0.732007 0.399823 0.193349
616 2 0.75858 0.394037 0.167882
46 1 0.816526 0.286964 0.19206
76 1 0.842716 0.396843 0.184604
85 1 0.15662 0.460655 0.18946
31 1 0.350087 0.508844 0.198002
58 1 0.39615 0.405498 0.190061
706 2 0.261215 0.536533 0.180522
40 1 0.586012 0.506382 0.197569
607 2 0.576206 0.431864 0.168594
715 2 0.472844 0.523522 0.183958
589 2 0.605656 0.404684 0.168471
724 2 0.698206 0.528195 0.183061
49 1 0.806251 0.492395 0.196485
574 2 0.162533 0.642864 0.169121
61 1 0.358403 0.629955 0.19111
88 1 0.230821 0.66333 0.195673
601 2 0.333316 0.669037 0.167597
709 2 0.244757 0.770171 0.182147
43 1 0.527109 0.748279 0.194051
70 1 0.585205 0.633983 0.192546
610 2 0.524695 0.661061 0.170059
718 2 0.407893 0.774861 0.181941
592 2 0.586419 0.617643 0.168393
619 2 0.730105 0.659847 0.167089
727 2 0.637934 0.763249 0.180908
52 1 0.749709 0.724771 0.190748
79 1 0.796721 0.611151 0.186469
784 2 0.190202 0.176846 0.215381
190 1 0.307331 0.17025 0.20984
793 2 0.420709 0.167545 0.205519
199 1 0.533105 0.13002 0.214535
847 2 0.440578 0.164967 0.232971
802 2 0.689486 0.156721 0.207348
208 1 0.806965 0.17612 0.201061
298 1 0.121995 0.285623 0.218498
307 1 0.356861 0.261909 0.220961
352 1 0.240833 0.28957 0.227312
649 2 0.242168 0.309734 0.208855
796 2 0.374193 0.394234 0.209267
37 1 0.568699 0.216816 0.200767
361 1 0.479851 0.296309 0.226947
658 2 0.489547 0.294973 0.216868
316 1 0.613787 0.241422 0.221952
343 1 0.7372 0.389653 0.225988
370 1 0.742131 0.266593 0.221099
667 2 0.754721 0.276147 0.214981
805 2 0.634484 0.35466 0.209135
211 1 0.817348 0.376745 0.208602
787 2 0.132979 0.415402 0.213566
301 1 0.0896239 0.536339 0.22051
325 1 0.253875 0.405872 0.22625
193 1 0.251608 0.438939 0.202554
310 1 0.321212 0.508634 0.220953
355 1 0.202074 0.512348 0.227583
652 2 0.204511 0.541809 0.207026
94 1 0.500534 0.416402 0.201845
334 1 0.499251 0.416357 0.224684
364 1 0.455063 0.531309 0.224798
661 2 0.456888 0.529194 0.21613
319 1 0.585625 0.506914 0.22817
202 1 0.607136 0.415224 0.213872
670 2 0.704315 0.498203 0.211711
304 1 0.122802 0.743662 0.231754
790 2 0.128108 0.665766 0.21357
655 2 0.198069 0.790555 0.20946
196 1 0.306495 0.710898 0.212463
313 1 0.348615 0.776251 0.228884
328 1 0.247144 0.623951 0.225984
358 1 0.233279 0.741344 0.226562
799 2 0.340512 0.625459 0.208233
97 1 0.471239 0.641107 0.200719
205 1 0.531853 0.772961 0.216372
337 1 0.493383 0.664156 0.223153
664 2 0.423791 0.754838 0.209943
808 2 0.592439 0.605363 0.211917
106 1 0.709057 0.629783 0.201591
214 1 0.774601 0.708316 0.21291
322 1 0.613085 0.786769 0.231943
346 1 0.714147 0.623817 0.224505
673 2 0.646246 0.74265 0.208633
349 1 0.72489 0.797563 0.222778
34 1 0.31899 0.817746 0.201219
340 1 0.452033 0.828042 0.228687
874 2 0.420652 0.163312 0.261775
856 2 0.613634 0.120083 0.233615
883 2 0.626179 0.146228 0.261833
838 2 0.151395 0.234083 0.240916
730 2 0.312149 0.243742 0.246619
757 2 0.241012 0.342201 0.25349
850 2 0.372916 0.388789 0.236938
877 2 0.380091 0.388726 0.266164
739 2 0.540966 0.24813 0.247952
766 2 0.484954 0.299602 0.25067
748 2 0.718419 0.237534 0.244231
775 2 0.707939 0.246442 0.244086
859 2 0.612983 0.378667 0.237631
751 2 0.753112 0.387227 0.254126
289 1 0.813601 0.278204 0.259703
841 2 0.124011 0.445944 0.242742
733 2 0.268807 0.508583 0.250713
760 2 0.25667 0.529824 0.251274
742 2 0.465404 0.508297 0.248527
769 2 0.449806 0.518591 0.248704
373 1 0.745502 0.492172 0.240879
778 2 0.622026 0.511314 0.253916
265 1 0.748967 0.509632 0.264327
844 2 0.119383 0.60797 0.240486
736 2 0.243724 0.69159 0.249639
763 2 0.217565 0.719176 0.250468
853 2 0.375749 0.638779 0.23726
772 2 0.370538 0.775027 0.253141
367 1 0.497936 0.746492 0.241881
745 2 0.497921 0.664824 0.261759
862 2 0.598109 0.645636 0.239132
259 1 0.486769 0.799661 0.262456
376 1 0.707369 0.727583 0.240111
754 2 0.745213 0.61343 0.248914
781 2 0.609687 0.770391 0.256351
268 1 0.73368 0.732773 0.26256
331 1 0.264658 0.827549 0.240035
811 2 0.187199 0.140187 0.291524
217 1 0.296493 0.128773 0.276117
820 2 0.410588 0.113119 0.288941
226 1 0.525666 0.10296 0.276272
955 2 0.528309 0.198088 0.292692
235 1 0.763925 0.106978 0.276939
829 2 0.664447 0.124744 0.289808
379 1 0.152714 0.259759 0.286604
865 2 0.201199 0.206528 0.267302
220 1 0.246603 0.34233 0.281143
244 1 0.321459 0.25255 0.271077
823 2 0.389086 0.366788 0.298184
946 2 0.305729 0.22903 0.292538
271 1 0.424277 0.250863 0.282134
229 1 0.49161 0.342888 0.276885
253 1 0.53146 0.225872 0.271692
388 1 0.512082 0.209524 0.29738
496 1 0.511832 0.327187 0.299951
886 2 0.613091 0.364177 0.267942
238 1 0.732219 0.320802 0.276458
262 1 0.737667 0.207069 0.268541
280 1 0.640379 0.24626 0.28166
397 1 0.753724 0.244826 0.29522
832 2 0.643693 0.357002 0.299905
964 2 0.790461 0.205882 0.293129
967 2 0.801575 0.3649 0.293219
868 2 0.164427 0.447918 0.271806
814 2 0.148677 0.409452 0.299966
382 1 0.14144 0.532743 0.291311
247 1 0.291957 0.497896 0.275804
949 2 0.27616 0.469787 0.28985
223 1 0.249984 0.598968 0.28443
274 1 0.403525 0.49276 0.283619
256 1 0.511201 0.474797 0.270846
391 1 0.546098 0.502976 0.293264
958 2 0.53215 0.451754 0.288273
232 1 0.482767 0.582375 0.281346
283 1 0.643939 0.499692 0.278146
400 1 0.758466 0.556697 0.284322
535 1 0.711624 0.470062 0.29581
292 1 0.825108 0.46033 0.279029
871 2 0.148492 0.613779 0.269836
817 2 0.184493 0.703133 0.293565
880 2 0.356825 0.614544 0.268494
250 1 0.266828 0.720458 0.273998
952 2 0.326742 0.763181 0.296319
277 1 0.40967 0.742534 0.276778
961 2 0.532277 0.707 0.289222
889 2 0.654366 0.63808 0.272377
241 1 0.796077 0.639708 0.270784
286 1 0.648106 0.770242 0.279255
970 2 0.75952 0.674638 0.294398
295 1 0.811829 0.75079 0.279273
394 1 0.429947 0.824143 0.29211
403 1 0.735067 0.804991 0.291676
523 1 0.430593 0.161636 0.310702
532 1 0.67952 0.194044 0.309685
1018 2 0.795558 0.173515 0.320781
541 1 0.149813 0.318864 0.320882
919 2 0.198448 0.214469 0.331724
514 1 0.201913 0.2377 0.307598
487 1 0.257758 0.348786 0.306034
1000 2 0.339884 0.256175 0.319686
550 1 0.402221 0.366332 0.309637
1009 2 0.562894 0.248712 0.318254
901 2 0.448436 0.347508 0.332244
559 1 0.633691 0.369782 0.310168
910 2 0.710519 0.294347 0.327831
505 1 0.824981 0.295245 0.313184
517 1 0.146699 0.507533 0.316646
490 1 0.224532 0.578925 0.306206
1003 2 0.309264 0.47286 0.317869
526 1 0.43569 0.490911 0.305634
1012 2 0.552483 0.477792 0.317138
904 2 0.431798 0.552323 0.330222
835 2 0.629462 0.586951 0.30103
508 1 0.758307 0.560274 0.308277
562 1 0.632595 0.577653 0.308347
1021 2 0.758924 0.429334 0.317413
913 2 0.674614 0.548934 0.330894
943 2 0.648457 0.586242 0.332369
544 1 0.136594 0.62636 0.321364
520 1 0.128837 0.737309 0.314864
826 2 0.357546 0.60359 0.300201
553 1 0.365766 0.603846 0.31069
1006 2 0.263082 0.69419 0.320046
499 1 0.490052 0.602712 0.303831
529 1 0.431578 0.718112 0.307697
1015 2 0.549509 0.696565 0.318949
538 1 0.647194 0.732502 0.300378
1024 2 0.7879 0.665252 0.322186
511 1 0.737058 0.771793 0.313065
385 1 0.176934 0.816965 0.301461
547 1 0.165895 0.834418 0.324195
493 1 0.272381 0.83384 0.313638
556 1 0.392359 0.826287 0.315124
502 1 0.513462 0.805906 0.306737
565 1 0.620049 0.805767 0.317544
928 2 0.450178 0.172082 0.334884
415 1 0.447279 0.198507 0.360079
937 2 0.651359 0.147197 0.334084
424 1 0.657485 0.176912 0.35888
406 1 0.180782 0.253571 0.354355
433 1 0.187463 0.374803 0.357518
460 1 0.306187 0.360246 0.359138
892 2 0.243274 0.357504 0.336112
1027 2 0.326263 0.239715 0.349434
931 2 0.425523 0.373982 0.33347
442 1 0.433825 0.320631 0.357634
469 1 0.543729 0.362729 0.364346
1036 2 0.557956 0.256156 0.348984
451 1 0.698336 0.309768 0.353025
940 2 0.628928 0.374161 0.33385
1045 2 0.776349 0.202009 0.349653
478 1 0.817742 0.319965 0.356843
922 2 0.182545 0.415581 0.334432
409 1 0.186987 0.499969 0.35713
463 1 0.310569 0.584215 0.364256
895 2 0.213148 0.560458 0.335243
1030 2 0.33263 0.473342 0.349416
418 1 0.44337 0.433181 0.364841
445 1 0.43603 0.551269 0.356144
1039 2 0.545119 0.478521 0.348088
427 1 0.651319 0.419184 0.361488
454 1 0.679973 0.538901 0.35606
481 1 0.79438 0.53104 0.363747
1048 2 0.760063 0.430936 0.346431
436 1 0.196053 0.618862 0.355411
412 1 0.122003 0.6936 0.364812
925 2 0.150273 0.71942 0.339612
934 2 0.37221 0.605497 0.334502
1033 2 0.286726 0.712317 0.355701
421 1 0.412566 0.667919 0.360662
907 2 0.410313 0.751973 0.334439
1042 2 0.525741 0.65022 0.345936
475 1 0.481851 0.772956 0.355285
430 1 0.643692 0.664726 0.35948
916 2 0.666716 0.739139 0.33666
1051 2 0.771931 0.636894 0.34938
457 1 0.609722 0.779048 0.357945
484 1 0.733189 0.750436 0.359611
439 1 0.170931 0.803666 0.357165
898 2 0.265792 0.828842 0.338304
466 1 0.278615 0.841396 0.363907
448 1 0.381036 0.842706 0.352462
2 1 0.2424 0.172255 0.366992
973 2 0.354223 0.198228 0.377991
11 1 0.471452 0.101679 0.372736
119 1 0.45914 0.162827 0.39155
982 2 0.55885 0.182897 0.376119
20 1 0.750177 0.133966 0.369331
128 1 0.686586 0.170474 0.387092
182 1 0.795569 0.188749 0.399576
110 1 0.240065 0.205974 0.39291
164 1 0.351605 0.204941 0.399064
14 1 0.381853 0.324964 0.372637
137 1 0.342907 0.320248 0.393754
623 2 0.237351 0.292698 0.375283
146 1 0.570019 0.304022 0.390504
632 2 0.45527 0.301147 0.379567
23 1 0.680004 0.330732 0.378728
641 2 0.655864 0.296796 0.372064
991 2 0.79353 0.247797 0.377896
155 1 0.832698 0.307476 0.399968
5 1 0.122831 0.481999 0.374832
113 1 0.156261 0.472216 0.395153
626 2 0.189796 0.593133 0.377699
140 1 0.324061 0.547041 0.385248
167 1 0.281438 0.443037 0.392691
976 2 0.25071 0.446247 0.376628
122 1 0.395357 0.431609 0.385762
472 1 0.568801 0.565916 0.366931
149 1 0.570715 0.577609 0.390201
176 1 0.574054 0.445887 0.393722
635 2 0.443024 0.556532 0.375028
985 2 0.544738 0.445037 0.38391
17 1 0.454582 0.568898 0.381483
131 1 0.696018 0.417237 0.393702
644 2 0.682447 0.523373 0.378666
994 2 0.785451 0.404387 0.375006
158 1 0.820747 0.53279 0.386129
185 1 0.820243 0.431241 0.398195
8 1 0.0889471 0.729802 0.385123
116 1 0.158409 0.667508 0.398827
170 1 0.300871 0.665875 0.395922
629 2 0.200822 0.763662 0.379978
979 2 0.308276 0.677799 0.389386
638 2 0.395707 0.783788 0.374762
125 1 0.433355 0.663738 0.392935
152 1 0.541804 0.797789 0.390772
179 1 0.54338 0.689564 0.399233
988 2 0.523471 0.691991 0.374427
26 1 0.668336 0.609515 0.377815
134 1 0.672736 0.651137 0.39756
647 2 0.660598 0.751717 0.380501
997 2 0.781813 0.654767 0.377917
161 1 0.758007 0.736696 0.398076
143 1 0.306838 0.819885 0.392408
56 1 0.368019 0.162205 0.432483
173 1 0.582241 0.186763 0.400806
578 2 0.441203 0.195957 0.415078
587 2 0.693578 0.150633 0.413738
569 2 0.198647 0.214302 0.416411
596 2 0.345208 0.270021 0.420031
677 2 0.217703 0.350072 0.403046
704 2 0.217288 0.351351 0.43193
605 2 0.569995 0.254198 0.420913
686 2 0.459907 0.366332 0.405542
695 2 0.692193 0.285474 0.401758
617 2 0.759152 0.394026 0.418484
614 2 0.816165 0.247315 0.421856
572 2 0.140191 0.470675 0.420794
581 2 0.339287 0.441723 0.419905
599 2 0.329163 0.439616 0.416419
680 2 0.236485 0.558023 0.405776
590 2 0.596653 0.431186 0.417433
608 2 0.585592 0.448531 0.418025
689 2 0.460325 0.536087 0.404542
716 2 0.470075 0.52784 0.432847
698 2 0.734935 0.533165 0.4058
575 2 0.153661 0.645158 0.427893
584 2 0.349729 0.644174 0.420086
602 2 0.326464 0.664157 0.421352
683 2 0.228664 0.762413 0.410245
611 2 0.504315 0.684915 0.424293
692 2 0.424666 0.778623 0.404196
593 2 0.598814 0.613866 0.417844
620 2 0.749171 0.67065 0.42049
701 2 0.632388 0.766867 0.409567
188 1 0.821597 0.63459 0.400558
785 2 0.186853 0.174067 0.464685
191 1 0.298439 0.160479 0.45691
794 2 0.420163 0.152451 0.454561
92 1 0.498677 0.153645 0.435898
200 1 0.541082 0.142695 0.462127
65 1 0.622229 0.150978 0.433579
101 1 0.747435 0.140414 0.43632
803 2 0.696529 0.164206 0.459249
74 1 0.861963 0.176366 0.438035
209 1 0.813396 0.165888 0.453763
83 1 0.243258 0.216049 0.439906
29 1 0.354794 0.257681 0.445826
650 2 0.2381 0.308915 0.458746
797 2 0.380419 0.369938 0.458791
59 1 0.333157 0.382752 0.441655
713 2 0.470434 0.347577 0.434626
38 1 0.573563 0.234329 0.447596
659 2 0.486173 0.277804 0.466521
722 2 0.693189 0.269686 0.437766
806 2 0.611926 0.362292 0.455391
68 1 0.602895 0.386813 0.441237
104 1 0.734323 0.396993 0.444515
47 1 0.825686 0.276992 0.447448
212 1 0.827083 0.379702 0.458654
77 1 0.845073 0.371138 0.434756
788 2 0.111571 0.400532 0.465565
86 1 0.156322 0.44687 0.445469
707 2 0.258193 0.531888 0.438321
32 1 0.380887 0.487831 0.44939
194 1 0.269891 0.429401 0.453375
41 1 0.589208 0.501336 0.444926
95 1 0.494609 0.440322 0.452559
203 1 0.59394 0.450867 0.464719
725 2 0.709412 0.530866 0.434408
671 2 0.711643 0.490978 0.463009
50 1 0.814882 0.482289 0.445867
791 2 0.124773 0.678784 0.458649
710 2 0.226999 0.767663 0.441403
719 2 0.38013 0.792898 0.433369
62 1 0.372016 0.646232 0.444936
89 1 0.24584 0.648494 0.450009
197 1 0.314136 0.721555 0.463595
800 2 0.348522 0.600121 0.459302
44 1 0.509508 0.793765 0.44047
98 1 0.489961 0.641393 0.450807
206 1 0.555498 0.752272 0.458825
665 2 0.430502 0.748545 0.459106
728 2 0.63497 0.739159 0.437685
71 1 0.60026 0.617464 0.442262
107 1 0.723418 0.626644 0.45378
674 2 0.683383 0.744729 0.464954
809 2 0.602362 0.605356 0.46092
53 1 0.766088 0.723983 0.444073
215 1 0.826461 0.671736 0.460565
80 1 0.811827 0.608926 0.438755
35 1 0.319393 0.829474 0.455799
848 2 0.44754 0.151501 0.4824
857 2 0.614992 0.13519 0.48356
839 2 0.157963 0.206991 0.492206
299 1 0.120769 0.276887 0.472304
308 1 0.351476 0.241981 0.470075
353 1 0.238024 0.286408 0.47916
851 2 0.362407 0.366381 0.48725
731 2 0.307804 0.21748 0.495465
362 1 0.468436 0.282273 0.475495
740 2 0.535903 0.254277 0.497026
767 2 0.499377 0.294199 0.498607
668 2 0.743226 0.30024 0.468552
317 1 0.611476 0.248774 0.470771
371 1 0.723359 0.273734 0.478165
860 2 0.641905 0.394921 0.485277
749 2 0.753301 0.208299 0.498747
653 2 0.195722 0.53358 0.466745
842 2 0.12293 0.461101 0.49168
302 1 0.0660025 0.525412 0.471098
326 1 0.235875 0.409656 0.476441
311 1 0.338681 0.48308 0.471676
356 1 0.208569 0.533207 0.476275
734 2 0.271898 0.514685 0.496839
761 2 0.250041 0.548765 0.498513
662 2 0.471839 0.536375 0.470859
335 1 0.495645 0.402149 0.473658
365 1 0.462756 0.541321 0.478819
743 2 0.491809 0.457024 0.497377
344 1 0.784903 0.4195 0.477713
320 1 0.602611 0.529619 0.480381
374 1 0.734594 0.506949 0.49066
305 1 0.0953737 0.749005 0.479248
845 2 0.110487 0.621697 0.486611
656 2 0.217613 0.785636 0.471342
329 1 0.242112 0.653671 0.474148
359 1 0.208013 0.771228 0.477718
854 2 0.381198 0.655345 0.484754
737 2 0.235047 0.705766 0.497887
338 1 0.51278 0.669308 0.475703
368 1 0.469104 0.76498 0.490535
323 1 0.577396 0.777312 0.480046
347 1 0.753706 0.638279 0.477062
377 1 0.734595 0.739317 0.493592
863 2 0.63667 0.658837 0.487322
314 1 0.362864 0.802901 0.478486
332 1 0.269151 0.846234 0.491086
341 1 0.482303 0.835239 0.472446
350 1 0.678484 0.827572 0.484426
218 1 0.301335 0.12744 0.527775
875 2 0.420244 0.168647 0.511502
227 1 0.511296 0.0981248 0.523235
236 1 0.765906 0.113208 0.515117
884 2 0.627317 0.133862 0.512803
290 1 0.853047 0.190219 0.516808
866 2 0.199952 0.201825 0.520498
221 1 0.256189 0.352248 0.531542
245 1 0.321156 0.250243 0.519502
758 2 0.229505 0.335613 0.503833
878 2 0.377396 0.37227 0.51629
272 1 0.422242 0.258195 0.531267
230 1 0.497272 0.346346 0.529653
254 1 0.525999 0.229309 0.521366
239 1 0.72572 0.356677 0.521001
263 1 0.759153 0.239571 0.522385
281 1 0.64269 0.249659 0.524769
776 2 0.690426 0.267542 0.500301
887 2 0.603069 0.387137 0.516461
752 2 0.785621 0.389306 0.500764
869 2 0.183709 0.45576 0.52018
248 1 0.31386 0.508408 0.521298
275 1 0.424634 0.47289 0.528956
257 1 0.524971 0.510876 0.519703
770 2 0.423111 0.510475 0.500467
266 1 0.731239 0.483766 0.513759
284 1 0.645299 0.513462 0.529405
779 2 0.624696 0.530795 0.504209
293 1 0.822334 0.447184 0.525508
242 1 0.802169 0.569789 0.524492
872 2 0.148167 0.617553 0.517931
764 2 0.193332 0.74208 0.500315
224 1 0.257419 0.601603 0.531694
251 1 0.261967 0.726386 0.52241
881 2 0.355625 0.631595 0.514825
773 2 0.359441 0.781262 0.504503
278 1 0.411432 0.734958 0.527376
233 1 0.480459 0.619673 0.526617
260 1 0.48832 0.787376 0.512499
746 2 0.504535 0.656889 0.503542
269 1 0.722389 0.746103 0.515883
287 1 0.612593 0.784348 0.529143
755 2 0.75783 0.622968 0.504401
782 2 0.611849 0.780492 0.504134
890 2 0.631558 0.657559 0.52308
296 1 0.816443 0.68534 0.522847
812 2 0.196695 0.149899 0.548037
821 2 0.42501 0.133099 0.539902
956 2 0.571805 0.172412 0.540568
830 2 0.719594 0.135285 0.536469
533 1 0.669298 0.198952 0.556983
515 1 0.166624 0.254674 0.564363
542 1 0.143919 0.3762 0.566656
380 1 0.170884 0.269808 0.540901
488 1 0.252676 0.333558 0.555796
824 2 0.383848 0.363135 0.547669
947 2 0.305502 0.23398 0.540759
551 1 0.388882 0.362921 0.557761
389 1 0.521506 0.245974 0.54396
497 1 0.508913 0.359139 0.552767
524 1 0.415326 0.231086 0.556479
398 1 0.780144 0.244181 0.546797
560 1 0.674153 0.341478 0.557429
833 2 0.632076 0.322361 0.545754
968 2 0.783315 0.364261 0.541565
506 1 0.868363 0.32129 0.557247
965 2 0.827573 0.218458 0.540882
815 2 0.158633 0.410701 0.546241
518 1 0.173391 0.496343 0.564013
383 1 0.153136 0.535198 0.539616
491 1 0.241931 0.582057 0.554101
950 2 0.296584 0.481625 0.539526
554 1 0.370602 0.597394 0.561159
392 1 0.525389 0.531152 0.538214
500 1 0.488648 0.585926 0.556293
527 1 0.420123 0.492678 0.550746
959 2 0.543411 0.458474 0.539246
401 1 0.759754 0.514758 0.541651
536 1 0.669503 0.457038 0.551003
563 1 0.687829 0.57371 0.557307
836 2 0.620491 0.584664 0.550995
509 1 0.804177 0.55034 0.560715
521 1 0.141045 0.736239 0.564912
818 2 0.191588 0.702732 0.542796
827 2 0.372317 0.622955 0.544803
953 2 0.328086 0.780884 0.54534
530 1 0.416096 0.723877 0.560263
962 2 0.517527 0.706893 0.542767
539 1 0.646297 0.721767 0.548083
971 2 0.760172 0.647035 0.543131
512 1 0.73419 0.760891 0.561181
386 1 0.174059 0.816403 0.550236
494 1 0.266841 0.843557 0.56256
395 1 0.444309 0.815349 0.543019
503 1 0.502847 0.800879 0.562009
404 1 0.704725 0.818058 0.542165
920 2 0.176156 0.195111 0.586071
929 2 0.437941 0.172775 0.58287
938 2 0.636801 0.172106 0.581342
893 2 0.230838 0.342756 0.582258
1001 2 0.299216 0.215221 0.569458
1028 2 0.313 0.23049 0.598403
932 2 0.410036 0.355705 0.581691
902 2 0.406219 0.3518 0.581749
1010 2 0.538263 0.263212 0.567414
1037 2 0.532731 0.270933 0.597754
911 2 0.662949 0.349961 0.582037
941 2 0.656408 0.359212 0.581918
1019 2 0.769555 0.260211 0.569259
1046 2 0.749587 0.224005 0.597528
923 2 0.190883 0.427843 0.586272
896 2 0.218547 0.571712 0.584791
1004 2 0.313567 0.471068 0.568953
935 2 0.380382 0.593368 0.585204
905 2 0.431303 0.553623 0.582728
1013 2 0.540337 0.465238 0.567774
1040 2 0.543952 0.452484 0.596296
914 2 0.678 0.538926 0.580406
1022 2 0.782406 0.425344 0.567115
1049 2 0.771988 0.439543 0.597435
944 2 0.647847 0.577246 0.582303
545 1 0.147274 0.617781 0.567623
926 2 0.156311 0.687272 0.588035
1007 2 0.278355 0.692378 0.568149
908 2 0.411882 0.7447 0.585669
1016 2 0.540532 0.681906 0.5712
1043 2 0.532447 0.643274 0.598379
566 1 0.618437 0.789164 0.567095
917 2 0.666997 0.730943 0.586534
1025 2 0.781624 0.657925 0.571395
1052 2 0.774361 0.631895 0.599219
548 1 0.166385 0.842644 0.572898
557 1 0.37935 0.830204 0.568273
899 2 0.262911 0.814397 0.586772
3 1 0.235125 0.180577 0.623042
12 1 0.46117 0.117507 0.626327
416 1 0.435815 0.193876 0.609092
983 2 0.55812 0.186759 0.623029
21 1 0.736704 0.136147 0.617985
425 1 0.641351 0.158251 0.60541
407 1 0.179066 0.2445 0.60788
434 1 0.139885 0.34889 0.600729
15 1 0.349006 0.349775 0.620866
461 1 0.25611 0.344536 0.606746
624 2 0.220317 0.308596 0.628047
974 2 0.350245 0.222005 0.627486
443 1 0.395811 0.325666 0.607991
470 1 0.590314 0.327873 0.617276
633 2 0.466616 0.313127 0.624989
24 1 0.673 0.358463 0.631162
452 1 0.704714 0.340266 0.607748
642 2 0.696681 0.256393 0.623677
995 2 0.787317 0.39745 0.625579
479 1 0.825651 0.319438 0.607351
992 2 0.838878 0.209062 0.621897
6 1 0.116606 0.510849 0.621813
410 1 0.193107 0.446017 0.611201
437 1 0.168347 0.582796 0.605426
1031 2 0.330986 0.45631 0.601554
464 1 0.329555 0.574508 0.617905
977 2 0.276056 0.456214 0.632116
419 1 0.449261 0.42993 0.614432
446 1 0.442353 0.54762 0.607497
473 1 0.576708 0.551047 0.615881
636 2 0.458737 0.551244 0.625143
18 1 0.478716 0.584578 0.628828
428 1 0.6399 0.435647 0.613266
455 1 0.69131 0.536477 0.60609
645 2 0.689627 0.524798 0.627916
27 1 0.692929 0.573678 0.631508
482 1 0.804978 0.532366 0.615511
627 2 0.197007 0.602175 0.62354
9 1 0.0789853 0.720358 0.631471
413 1 0.110258 0.682616 0.611369
630 2 0.188625 0.764029 0.626273
440 1 0.160454 0.789243 0.603102
1034 2 0.287248 0.685327 0.603913
422 1 0.418596 0.671006 0.61509
639 2 0.424638 0.792245 0.627001
989 2 0.544898 0.694461 0.626468
476 1 0.489339 0.768129 0.606139
431 1 0.659072 0.650223 0.613495
648 2 0.670549 0.782308 0.630798
998 2 0.773784 0.664672 0.628449
458 1 0.613242 0.764585 0.608313
485 1 0.733471 0.748301 0.609096
467 1 0.263141 0.831944 0.611343
449 1 0.3734 0.809678 0.605056
174 1 0.593747 0.186535 0.652648
129 1 0.687364 0.156376 0.639543
183 1 0.799945 0.184466 0.646476
588 2 0.717262 0.155573 0.664875
111 1 0.245528 0.227638 0.646009
165 1 0.357788 0.204142 0.651014
138 1 0.337915 0.326507 0.643527
678 2 0.207675 0.367437 0.654072
120 1 0.469905 0.205728 0.642
147 1 0.574021 0.291459 0.63963
687 2 0.470181 0.347454 0.654524
696 2 0.691403 0.289797 0.652228
156 1 0.816656 0.293919 0.640058
615 2 0.829979 0.278398 0.665281
114 1 0.148628 0.468419 0.641805
141 1 0.357263 0.559706 0.639757
168 1 0.299829 0.451673 0.643071
681 2 0.22891 0.564142 0.652073
582 2 0.34925 0.426941 0.665307
986 2 0.559954 0.435751 0.635128
123 1 0.411372 0.429019 0.635846
150 1 0.580492 0.573613 0.640378
177 1 0.57137 0.441068 0.644655
690 2 0.467488 0.534605 0.654195
132 1 0.706673 0.432445 0.645898
699 2 0.721333 0.554575 0.655695
159 1 0.807184 0.517801 0.638759
186 1 0.829375 0.401049 0.649616
117 1 0.165296 0.67612 0.644886
980 2 0.310221 0.686488 0.636846
171 1 0.300597 0.685357 0.646108
684 2 0.230356 0.783834 0.655983
126 1 0.432925 0.659478 0.643133
180 1 0.538884 0.692162 0.649268
693 2 0.408869 0.777936 0.654569
135 1 0.65691 0.667566 0.644187
702 2 0.627368 0.770787 0.659754
162 1 0.754888 0.739569 0.648922
189 1 0.82299 0.638556 0.651069
144 1 0.303831 0.826592 0.636229
153 1 0.536966 0.804763 0.641525
57 1 0.367337 0.166529 0.683442
579 2 0.449351 0.195963 0.666757
93 1 0.506628 0.159156 0.687738
66 1 0.629973 0.150463 0.683438
102 1 0.741451 0.116972 0.68768
75 1 0.830645 0.191142 0.682483
570 2 0.187538 0.230909 0.668391
84 1 0.249879 0.21967 0.690237
30 1 0.362485 0.264242 0.696681
597 2 0.336865 0.272429 0.671019
705 2 0.214899 0.372133 0.681823
60 1 0.338247 0.384213 0.690053
39 1 0.586378 0.237316 0.698283
606 2 0.584555 0.255982 0.672671
714 2 0.475096 0.340887 0.684236
723 2 0.721752 0.264587 0.687483
69 1 0.615014 0.380119 0.690322
48 1 0.841881 0.284214 0.698
78 1 0.844381 0.377416 0.684455
573 2 0.122793 0.482708 0.667347
87 1 0.134013 0.466152 0.69275
33 1 0.348027 0.502254 0.696444
600 2 0.331987 0.455022 0.666812
708 2 0.240435 0.542592 0.68314
591 2 0.596102 0.427513 0.667957
42 1 0.594529 0.497351 0.697049
609 2 0.57892 0.448783 0.668374
717 2 0.469093 0.525097 0.683993
105 1 0.736407 0.406408 0.694275
618 2 0.753338 0.410106 0.669633
726 2 0.703794 0.54013 0.684277
51 1 0.811012 0.494486 0.696034
576 2 0.148626 0.660508 0.671187
63 1 0.352949 0.628808 0.692891
90 1 0.229601 0.665488 0.699749
585 2 0.353499 0.632674 0.667726
603 2 0.313252 0.671872 0.670201
711 2 0.226408 0.776225 0.685972
720 2 0.380432 0.794389 0.682572
45 1 0.503214 0.781336 0.69166
72 1 0.587188 0.615129 0.69262
612 2 0.501519 0.682423 0.673634
594 2 0.591055 0.618988 0.668064
621 2 0.748037 0.682626 0.67103
729 2 0.627888 0.738013 0.688343
54 1 0.758523 0.736351 0.694459
81 1 0.80621 0.621216 0.689413
786 2 0.192826 0.179739 0.713638
192 1 0.308268 0.170062 0.708422
795 2 0.424799 0.162904 0.705795
201 1 0.545058 0.145735 0.711938
849 2 0.442028 0.165819 0.733273
804 2 0.688664 0.158093 0.70874
858 2 0.608126 0.122252 0.732938
210 1 0.804673 0.177542 0.701692
300 1 0.127556 0.28259 0.720341
309 1 0.359054 0.260882 0.720527
354 1 0.243545 0.287632 0.727951
651 2 0.246862 0.315562 0.708028
798 2 0.386931 0.387971 0.706542
363 1 0.481443 0.292962 0.726795
660 2 0.492679 0.293196 0.71737
318 1 0.615617 0.246193 0.721493
372 1 0.740852 0.274268 0.72305
669 2 0.750401 0.284251 0.717736
807 2 0.632608 0.355107 0.706804
213 1 0.818814 0.381487 0.710026
789 2 0.127948 0.411343 0.71544
303 1 0.0871614 0.535675 0.722846
327 1 0.243027 0.406245 0.727549
195 1 0.241551 0.44361 0.702863
312 1 0.32235 0.489711 0.718973
357 1 0.206956 0.519151 0.728164
654 2 0.200559 0.539847 0.71003
96 1 0.517364 0.416141 0.703984
336 1 0.511486 0.415217 0.726309
366 1 0.454032 0.529434 0.724376
663 2 0.460754 0.524634 0.7165
321 1 0.589267 0.50881 0.728317
345 1 0.74794 0.405428 0.727008
204 1 0.627208 0.415248 0.714959
672 2 0.710338 0.50553 0.712431
306 1 0.116479 0.747987 0.732883
792 2 0.119533 0.666317 0.714794
657 2 0.191574 0.792733 0.713692
198 1 0.30395 0.72232 0.715708
315 1 0.36614 0.783656 0.731212
330 1 0.243027 0.634567 0.725821
360 1 0.22878 0.751077 0.72756
801 2 0.344212 0.614069 0.709258
99 1 0.474498 0.645942 0.70004
207 1 0.541014 0.75949 0.712114
339 1 0.491003 0.663052 0.722546
666 2 0.416457 0.753518 0.709163
324 1 0.572805 0.798092 0.732354
810 2 0.592021 0.606895 0.711621
108 1 0.705949 0.64008 0.70181
348 1 0.721628 0.637963 0.724807
675 2 0.663559 0.748079 0.716825
216 1 0.807089 0.679129 0.711393
36 1 0.307749 0.824052 0.70338
342 1 0.468726 0.833236 0.724397
876 2 0.425239 0.170949 0.763159
885 2 0.621742 0.138398 0.761196
840 2 0.1654 0.213293 0.74114
732 2 0.316574 0.247008 0.74747
759 2 0.237273 0.339662 0.752382
852 2 0.373561 0.391283 0.735251
879 2 0.370407 0.385038 0.764867
741 2 0.542832 0.251598 0.748011
768 2 0.485643 0.305513 0.750548
750 2 0.71397 0.239003 0.745873
777 2 0.709143 0.243224 0.745868
861 2 0.6294 0.374694 0.737189
753 2 0.762943 0.386978 0.755604
291 1 0.812385 0.265953 0.761382
843 2 0.125671 0.455112 0.743426
735 2 0.272475 0.513026 0.750661
762 2 0.261926 0.53269 0.75142
744 2 0.466962 0.510477 0.748245
771 2 0.450935 0.52144 0.748312
375 1 0.751298 0.492594 0.742405
780 2 0.623956 0.510523 0.752939
267 1 0.752936 0.513449 0.764622
846 2 0.117038 0.613341 0.741857
738 2 0.242031 0.696057 0.749577
765 2 0.210241 0.72617 0.751567
855 2 0.37747 0.644768 0.737462
774 2 0.365436 0.773335 0.756045
369 1 0.476799 0.749153 0.741618
747 2 0.503053 0.668387 0.762104
864 2 0.597161 0.649954 0.738987
261 1 0.49048 0.799372 0.762747
378 1 0.720306 0.729066 0.741835
756 2 0.744147 0.61458 0.749479
783 2 0.615669 0.774082 0.755517
270 1 0.732949 0.73015 0.764245
333 1 0.271909 0.827464 0.741201
351 1 0.679429 0.829054 0.735833
813 2 0.187909 0.139247 0.792974
219 1 0.301239 0.130333 0.77733
822 2 0.418281 0.117321 0.790499
228 1 0.529202 0.110048 0.777647
237 1 0.771729 0.105666 0.780097
831 2 0.657329 0.11995 0.789256
264 1 0.729562 0.197251 0.769975
381 1 0.167333 0.264439 0.790377
867 2 0.205867 0.211756 0.769261
222 1 0.250436 0.345512 0.781748
246 1 0.325733 0.254615 0.772489
825 2 0.370984 0.363661 0.797105
948 2 0.308958 0.221565 0.794664
273 1 0.43051 0.257629 0.78387
231 1 0.485911 0.359642 0.775984