LAMMPS data file. CGCMM style. atom_style full generated by VMD/TopoTools v1.7 on Tue Sep 02 11:21:16 +0330 2025
 1216 atoms
 0 bonds
 0 angles
 0 dihedrals
 0 impropers
 2 atom types
 0 bond types
 0 angle types
 0 dihedral types
 0 improper types
 0.00000 14.800000  xlo xhi
 0.00000 14.800000  ylo yhi
 0.00000 79.400000  zlo zhi

# Pair Coeffs
#
# 1  Co
# 2  Ta

 Masses

 1 58.933201 # Co
 2 180.947906 # Ta

 Atoms # full

1 1 2 0.000000 0.000000 0.000000 0.000000 # Ta 
2 1 2 0.000000 0.000000 0.000000 79.320000 # Ta 
3 1 2 0.000000 -7.392001 12.803318 0.000000 # Ta 
4 1 2 0.000000 -7.392001 12.803318 79.320000 # Ta 
5 1 2 0.000000 14.783999 0.000000 0.000000 # Ta 
6 1 2 0.000000 14.783999 0.000000 79.320000 # Ta 
7 1 2 0.000000 7.391998 12.803318 0.000000 # Ta 
8 1 2 0.000000 7.391998 12.803318 79.320000 # Ta 
9 1 2 0.000000 0.000000 0.000000 26.440001 # Ta 
10 1 2 0.000000 -7.392001 12.803318 26.440001 # Ta 
11 1 2 0.000000 14.783999 0.000000 26.440001 # Ta 
12 1 2 0.000000 7.391998 12.803318 26.440001 # Ta 
13 1 2 0.000000 0.000000 0.000000 52.880001 # Ta 
14 1 2 0.000000 -7.392001 12.803318 52.880001 # Ta 
15 1 2 0.000000 14.783999 0.000000 52.880001 # Ta 
16 1 2 0.000000 7.391998 12.803318 52.880001 # Ta 
17 1 2 0.000000 -2.464000 4.267773 0.000000 # Ta 
18 1 2 0.000000 -2.464000 4.267773 79.320000 # Ta 
19 1 2 0.000000 12.319999 4.267773 0.000000 # Ta 
20 1 2 0.000000 12.319999 4.267773 79.320000 # Ta 
21 1 2 0.000000 -2.464000 4.267773 26.440001 # Ta 
22 1 2 0.000000 12.319999 4.267773 26.440001 # Ta 
23 1 2 0.000000 -2.464000 4.267773 52.880001 # Ta 
24 1 2 0.000000 12.319999 4.267773 52.880001 # Ta 
25 1 2 0.000000 -4.928001 8.535545 0.000000 # Ta 
26 1 2 0.000000 -4.928001 8.535545 79.320000 # Ta 
27 1 2 0.000000 9.855998 8.535545 0.000000 # Ta 
28 1 2 0.000000 9.855998 8.535545 79.320000 # Ta 
29 1 2 0.000000 -4.928001 8.535545 26.440001 # Ta 
30 1 2 0.000000 9.855998 8.535545 26.440001 # Ta 
31 1 2 0.000000 -4.928001 8.535545 52.880001 # Ta 
32 1 2 0.000000 9.855998 8.535545 52.880001 # Ta 
33 1 2 0.000000 4.928000 0.000000 0.000000 # Ta 
34 1 2 0.000000 4.928000 0.000000 79.320000 # Ta 
35 1 2 0.000000 -2.464002 12.803318 0.000000 # Ta 
36 1 2 0.000000 -2.464002 12.803318 79.320000 # Ta 
37 1 2 0.000000 4.928000 0.000000 26.440001 # Ta 
38 1 2 0.000000 -2.464002 12.803318 26.440001 # Ta 
39 1 2 0.000000 4.928000 0.000000 52.880001 # Ta 
40 1 2 0.000000 -2.464002 12.803318 52.880001 # Ta 
41 1 2 0.000000 2.463999 4.267773 0.000000 # Ta 
42 1 2 0.000000 2.463999 4.267773 79.320000 # Ta 
43 1 2 0.000000 2.463999 4.267773 26.440001 # Ta 
44 1 2 0.000000 2.463999 4.267773 52.880001 # Ta 
45 1 2 0.000000 -0.000001 8.535545 0.000000 # Ta 
46 1 2 0.000000 -0.000001 8.535545 79.320000 # Ta 
47 1 2 0.000000 -0.000001 8.535545 26.440001 # Ta 
48 1 2 0.000000 -0.000001 8.535545 52.880001 # Ta 
49 1 2 0.000000 9.856000 0.000000 0.000000 # Ta 
50 1 2 0.000000 9.856000 0.000000 79.320000 # Ta 
51 1 2 0.000000 2.463998 12.803318 0.000000 # Ta 
52 1 2 0.000000 2.463998 12.803318 79.320000 # Ta 
53 1 2 0.000000 9.856000 0.000000 26.440001 # Ta 
54 1 2 0.000000 2.463998 12.803318 26.440001 # Ta 
55 1 2 0.000000 9.856000 0.000000 52.880001 # Ta 
56 1 2 0.000000 2.463998 12.803318 52.880001 # Ta 
57 1 2 0.000000 7.391999 4.267773 0.000000 # Ta 
58 1 2 0.000000 7.391999 4.267773 79.320000 # Ta 
59 1 2 0.000000 7.391999 4.267773 26.440001 # Ta 
60 1 2 0.000000 7.391999 4.267773 52.880001 # Ta 
61 1 2 0.000000 4.927999 8.535545 0.000000 # Ta 
62 1 2 0.000000 4.927999 8.535545 79.320000 # Ta 
63 1 2 0.000000 4.927999 8.535545 26.440001 # Ta 
64 1 2 0.000000 4.927999 8.535545 52.880001 # Ta 
65 1 2 0.000000 2.463999 2.849623 6.793185 # Ta 
66 1 2 0.000000 2.463999 2.849623 33.233185 # Ta 
67 1 2 0.000000 2.463999 2.849623 59.673183 # Ta 
68 1 2 0.000000 -0.000001 7.117396 6.793185 # Ta 
69 1 2 0.000000 -0.000001 7.117396 33.233185 # Ta 
70 1 2 0.000000 -0.000001 7.117396 59.673183 # Ta 
71 1 2 0.000000 -2.464002 11.385168 6.793185 # Ta 
72 1 2 0.000000 -2.464002 11.385168 33.233185 # Ta 
73 1 2 0.000000 -2.464002 11.385168 59.673183 # Ta 
74 1 2 0.000000 7.391999 2.849623 6.793185 # Ta 
75 1 2 0.000000 7.391999 2.849623 33.233185 # Ta 
76 1 2 0.000000 7.391999 2.849623 59.673183 # Ta 
77 1 2 0.000000 4.927999 7.117396 6.793185 # Ta 
78 1 2 0.000000 4.927999 7.117396 33.233185 # Ta 
79 1 2 0.000000 4.927999 7.117396 59.673183 # Ta 
80 1 2 0.000000 2.463998 11.385168 6.793185 # Ta 
81 1 2 0.000000 2.463998 11.385168 33.233185 # Ta 
82 1 2 0.000000 2.463998 11.385168 59.673183 # Ta 
83 1 2 0.000000 12.319999 2.849623 6.793185 # Ta 
84 1 2 0.000000 12.319999 2.849623 33.233185 # Ta 
85 1 2 0.000000 12.319999 2.849623 59.673183 # Ta 
86 1 2 0.000000 9.855999 7.117396 6.793185 # Ta 
87 1 2 0.000000 9.855999 7.117396 33.233185 # Ta 
88 1 2 0.000000 9.855999 7.117396 59.673183 # Ta 
89 1 2 0.000000 7.391998 11.385168 6.793185 # Ta 
90 1 2 0.000000 7.391998 11.385168 33.233185 # Ta 
91 1 2 0.000000 7.391998 11.385168 59.673183 # Ta 
92 1 2 0.000000 3.699846 0.709075 6.793185 # Ta 
93 1 2 0.000000 3.699846 0.709075 33.233185 # Ta 
94 1 2 0.000000 3.699846 0.709075 59.673183 # Ta 
95 1 2 0.000000 1.235845 4.976847 6.793185 # Ta 
96 1 2 0.000000 1.235845 4.976847 33.233185 # Ta 
97 1 2 0.000000 1.235845 4.976847 59.673183 # Ta 
98 1 2 0.000000 -1.228155 9.244620 6.793185 # Ta 
99 1 2 0.000000 -1.228155 9.244620 33.233185 # Ta 
100 1 2 0.000000 -1.228155 9.244620 59.673183 # Ta 
101 1 2 0.000000 8.627846 0.709075 6.793185 # Ta 
102 1 2 0.000000 8.627846 0.709075 33.233185 # Ta 
103 1 2 0.000000 8.627846 0.709075 59.673183 # Ta 
104 1 2 0.000000 6.163845 4.976847 6.793185 # Ta 
105 1 2 0.000000 6.163845 4.976847 33.233185 # Ta 
106 1 2 0.000000 6.163845 4.976847 59.673183 # Ta 
107 1 2 0.000000 3.699845 9.244620 6.793185 # Ta 
108 1 2 0.000000 3.699845 9.244620 33.233185 # Ta 
109 1 2 0.000000 3.699845 9.244620 59.673183 # Ta 
110 1 2 0.000000 13.555846 0.709075 6.793185 # Ta 
111 1 2 0.000000 13.555846 0.709075 33.233185 # Ta 
112 1 2 0.000000 13.555846 0.709075 59.673183 # Ta 
113 1 2 0.000000 11.091845 4.976847 6.793185 # Ta 
114 1 2 0.000000 11.091845 4.976847 33.233185 # Ta 
115 1 2 0.000000 11.091845 4.976847 59.673183 # Ta 
116 1 2 0.000000 8.627845 9.244620 6.793185 # Ta 
117 1 2 0.000000 8.627845 9.244620 33.233185 # Ta 
118 1 2 0.000000 8.627845 9.244620 59.673183 # Ta 
119 1 2 0.000000 1.228154 0.709075 6.793185 # Ta 
120 1 2 0.000000 1.228154 0.709075 33.233185 # Ta 
121 1 2 0.000000 1.228154 0.709075 59.673183 # Ta 
122 1 2 0.000000 -1.235847 4.976847 6.793185 # Ta 
123 1 2 0.000000 -1.235847 4.976847 33.233185 # Ta 
124 1 2 0.000000 -1.235847 4.976847 59.673183 # Ta 
125 1 2 0.000000 -3.699847 9.244620 6.793185 # Ta 
126 1 2 0.000000 -3.699847 9.244620 33.233185 # Ta 
127 1 2 0.000000 -3.699847 9.244620 59.673183 # Ta 
128 1 2 0.000000 6.156153 0.709075 6.793185 # Ta 
129 1 2 0.000000 6.156153 0.709075 33.233185 # Ta 
130 1 2 0.000000 6.156153 0.709075 59.673183 # Ta 
131 1 2 0.000000 3.692153 4.976847 6.793185 # Ta 
132 1 2 0.000000 3.692153 4.976847 33.233185 # Ta 
133 1 2 0.000000 3.692153 4.976847 59.673183 # Ta 
134 1 2 0.000000 1.228153 9.244620 6.793185 # Ta 
135 1 2 0.000000 1.228153 9.244620 33.233185 # Ta 
136 1 2 0.000000 1.228153 9.244620 59.673183 # Ta 
137 1 2 0.000000 11.084153 0.709075 6.793185 # Ta 
138 1 2 0.000000 11.084153 0.709075 33.233185 # Ta 
139 1 2 0.000000 11.084153 0.709075 59.673183 # Ta 
140 1 2 0.000000 8.620153 4.976847 6.793185 # Ta 
141 1 2 0.000000 8.620153 4.976847 33.233185 # Ta 
142 1 2 0.000000 8.620153 4.976847 59.673183 # Ta 
143 1 2 0.000000 6.156152 9.244620 6.793185 # Ta 
144 1 2 0.000000 6.156152 9.244620 33.233185 # Ta 
145 1 2 0.000000 6.156152 9.244620 59.673183 # Ta 
146 1 2 0.000000 1.235846 0.713516 2.020148 # Ta 
147 1 2 0.000000 1.235846 0.713516 28.460148 # Ta 
148 1 2 0.000000 1.235846 0.713516 54.900146 # Ta 
149 1 2 0.000000 -1.228154 4.981289 2.020148 # Ta 
150 1 2 0.000000 -1.228154 4.981289 28.460148 # Ta 
151 1 2 0.000000 -1.228154 4.981289 54.900146 # Ta 
152 1 2 0.000000 -3.692155 9.249062 2.020148 # Ta 
153 1 2 0.000000 -3.692155 9.249062 28.460148 # Ta 
154 1 2 0.000000 -3.692155 9.249062 54.900146 # Ta 
155 1 2 0.000000 6.163846 0.713516 2.020148 # Ta 
156 1 2 0.000000 6.163846 0.713516 28.460148 # Ta 
157 1 2 0.000000 6.163846 0.713516 54.900146 # Ta 
158 1 2 0.000000 3.699846 4.981289 2.020148 # Ta 
159 1 2 0.000000 3.699846 4.981289 28.460148 # Ta 
160 1 2 0.000000 3.699846 4.981289 54.900146 # Ta 
161 1 2 0.000000 1.235845 9.249062 2.020148 # Ta 
162 1 2 0.000000 1.235845 9.249062 28.460148 # Ta 
163 1 2 0.000000 1.235845 9.249062 54.900146 # Ta 
164 1 2 0.000000 11.091846 0.713516 2.020148 # Ta 
165 1 2 0.000000 11.091846 0.713516 28.460148 # Ta 
166 1 2 0.000000 11.091846 0.713516 54.900146 # Ta 
167 1 2 0.000000 8.627845 4.981289 2.020148 # Ta 
168 1 2 0.000000 8.627845 4.981289 28.460148 # Ta 
169 1 2 0.000000 8.627845 4.981289 54.900146 # Ta 
170 1 2 0.000000 6.163845 9.249062 2.020148 # Ta 
171 1 2 0.000000 6.163845 9.249062 28.460148 # Ta 
172 1 2 0.000000 6.163845 9.249062 54.900146 # Ta 
173 1 2 0.000000 2.464000 2.840740 2.020148 # Ta 
174 1 2 0.000000 2.464000 2.840740 28.460148 # Ta 
175 1 2 0.000000 2.464000 2.840740 54.900146 # Ta 
176 1 2 0.000000 -0.000001 7.108513 2.020148 # Ta 
177 1 2 0.000000 -0.000001 7.108513 28.460148 # Ta 
178 1 2 0.000000 -0.000001 7.108513 54.900146 # Ta 
179 1 2 0.000000 -2.464001 11.376286 2.020148 # Ta 
180 1 2 0.000000 -2.464001 11.376286 28.460148 # Ta 
181 1 2 0.000000 -2.464001 11.376286 54.900146 # Ta 
182 1 2 0.000000 7.392000 2.840740 2.020148 # Ta 
183 1 2 0.000000 7.392000 2.840740 28.460148 # Ta 
184 1 2 0.000000 7.392000 2.840740 54.900146 # Ta 
185 1 2 0.000000 4.927999 7.108513 2.020148 # Ta 
186 1 2 0.000000 4.927999 7.108513 28.460148 # Ta 
187 1 2 0.000000 4.927999 7.108513 54.900146 # Ta 
188 1 2 0.000000 2.463999 11.376286 2.020148 # Ta 
189 1 2 0.000000 2.463999 11.376286 28.460148 # Ta 
190 1 2 0.000000 2.463999 11.376286 54.900146 # Ta 
191 1 2 0.000000 12.319999 2.840740 2.020148 # Ta 
192 1 2 0.000000 12.319999 2.840740 28.460148 # Ta 
193 1 2 0.000000 12.319999 2.840740 54.900146 # Ta 
194 1 2 0.000000 9.855999 7.108513 2.020148 # Ta 
195 1 2 0.000000 9.855999 7.108513 28.460148 # Ta 
196 1 2 0.000000 9.855999 7.108513 54.900146 # Ta 
197 1 2 0.000000 7.391998 11.376286 2.020148 # Ta 
198 1 2 0.000000 7.391998 11.376286 28.460148 # Ta 
199 1 2 0.000000 7.391998 11.376286 54.900146 # Ta 
200 1 2 0.000000 3.692154 0.713516 2.020148 # Ta 
201 1 2 0.000000 3.692154 0.713516 28.460148 # Ta 
202 1 2 0.000000 3.692154 0.713516 54.900146 # Ta 
203 1 2 0.000000 1.228153 4.981289 2.020148 # Ta 
204 1 2 0.000000 1.228153 4.981289 28.460148 # Ta 
205 1 2 0.000000 1.228153 4.981289 54.900146 # Ta 
206 1 2 0.000000 -1.235847 9.249062 2.020148 # Ta 
207 1 2 0.000000 -1.235847 9.249062 28.460148 # Ta 
208 1 2 0.000000 -1.235847 9.249062 54.900146 # Ta 
209 1 2 0.000000 8.620153 0.713516 2.020148 # Ta 
210 1 2 0.000000 8.620153 0.713516 28.460148 # Ta 
211 1 2 0.000000 8.620153 0.713516 54.900146 # Ta 
212 1 2 0.000000 6.156153 4.981289 2.020148 # Ta 
213 1 2 0.000000 6.156153 4.981289 28.460148 # Ta 
214 1 2 0.000000 6.156153 4.981289 54.900146 # Ta 
215 1 2 0.000000 3.692152 9.249062 2.020148 # Ta 
216 1 2 0.000000 3.692152 9.249062 28.460148 # Ta 
217 1 2 0.000000 3.692152 9.249062 54.900146 # Ta 
218 1 2 0.000000 13.548153 0.713516 2.020148 # Ta 
219 1 2 0.000000 13.548153 0.713516 28.460148 # Ta 
220 1 2 0.000000 13.548153 0.713516 54.900146 # Ta 
221 1 2 0.000000 11.084153 4.981289 2.020148 # Ta 
222 1 2 0.000000 11.084153 4.981289 28.460148 # Ta 
223 1 2 0.000000 11.084153 4.981289 54.900146 # Ta 
224 1 2 0.000000 8.620152 9.249062 2.020148 # Ta 
225 1 2 0.000000 8.620152 9.249062 28.460148 # Ta 
226 1 2 0.000000 8.620152 9.249062 54.900146 # Ta 
227 1 2 0.000000 2.464000 1.422591 8.813333 # Ta 
228 1 2 0.000000 2.464000 1.422591 35.253334 # Ta 
229 1 2 0.000000 2.464000 1.422591 61.693333 # Ta 
230 1 2 0.000000 -0.000001 5.690364 8.813333 # Ta 
231 1 2 0.000000 -0.000001 5.690364 35.253334 # Ta 
232 1 2 0.000000 -0.000001 5.690364 61.693333 # Ta 
233 1 2 0.000000 -2.464001 9.958136 8.813333 # Ta 
234 1 2 0.000000 -2.464001 9.958136 35.253334 # Ta 
235 1 2 0.000000 -2.464001 9.958136 61.693333 # Ta 
236 1 2 0.000000 7.392000 1.422591 8.813333 # Ta 
237 1 2 0.000000 7.392000 1.422591 35.253334 # Ta 
238 1 2 0.000000 7.392000 1.422591 61.693333 # Ta 
239 1 2 0.000000 4.927999 5.690364 8.813333 # Ta 
240 1 2 0.000000 4.927999 5.690364 35.253334 # Ta 
241 1 2 0.000000 4.927999 5.690364 61.693333 # Ta 
242 1 2 0.000000 2.463999 9.958136 8.813333 # Ta 
243 1 2 0.000000 2.463999 9.958136 35.253334 # Ta 
244 1 2 0.000000 2.463999 9.958136 61.693333 # Ta 
245 1 2 0.000000 12.319999 1.422591 8.813333 # Ta 
246 1 2 0.000000 12.319999 1.422591 35.253334 # Ta 
247 1 2 0.000000 12.319999 1.422591 61.693333 # Ta 
248 1 2 0.000000 9.855999 5.690364 8.813333 # Ta 
249 1 2 0.000000 9.855999 5.690364 35.253334 # Ta 
250 1 2 0.000000 9.855999 5.690364 61.693333 # Ta 
251 1 2 0.000000 7.391998 9.958136 8.813333 # Ta 
252 1 2 0.000000 7.391998 9.958136 35.253334 # Ta 
253 1 2 0.000000 7.391998 9.958136 61.693333 # Ta 
254 1 2 0.000000 2.464000 0.004441 15.606520 # Ta 
255 1 2 0.000000 2.464000 0.004441 42.046520 # Ta 
256 1 2 0.000000 2.464000 0.004441 68.486519 # Ta 
257 1 2 0.000000 -0.000000 4.272214 15.606520 # Ta 
258 1 2 0.000000 -0.000000 4.272214 42.046520 # Ta 
259 1 2 0.000000 -0.000000 4.272214 68.486519 # Ta 
260 1 2 0.000000 -2.464001 8.539987 15.606520 # Ta 
261 1 2 0.000000 -2.464001 8.539987 42.046520 # Ta 
262 1 2 0.000000 -2.464001 8.539987 68.486519 # Ta 
263 1 2 0.000000 7.392000 0.004441 15.606520 # Ta 
264 1 2 0.000000 7.392000 0.004441 42.046520 # Ta 
265 1 2 0.000000 7.392000 0.004441 68.486519 # Ta 
266 1 2 0.000000 4.927999 4.272214 15.606520 # Ta 
267 1 2 0.000000 4.927999 4.272214 42.046520 # Ta 
268 1 2 0.000000 4.927999 4.272214 68.486519 # Ta 
269 1 2 0.000000 2.463999 8.539987 15.606520 # Ta 
270 1 2 0.000000 2.463999 8.539987 42.046520 # Ta 
271 1 2 0.000000 2.463999 8.539987 68.486519 # Ta 
272 1 2 0.000000 12.320000 0.004441 15.606520 # Ta 
273 1 2 0.000000 12.320000 0.004441 42.046520 # Ta 
274 1 2 0.000000 12.320000 0.004441 68.486519 # Ta 
275 1 2 0.000000 9.855999 4.272214 15.606520 # Ta 
276 1 2 0.000000 9.855999 4.272214 42.046520 # Ta 
277 1 2 0.000000 9.855999 4.272214 68.486519 # Ta 
278 1 2 0.000000 7.391999 8.539987 15.606520 # Ta 
279 1 2 0.000000 7.391999 8.539987 42.046520 # Ta 
280 1 2 0.000000 7.391999 8.539987 68.486519 # Ta 
281 1 2 0.000000 1.235846 2.131666 15.606520 # Ta 
282 1 2 0.000000 1.235846 2.131666 42.046520 # Ta 
283 1 2 0.000000 1.235846 2.131666 68.486519 # Ta 
284 1 2 0.000000 -1.228154 6.399438 15.606520 # Ta 
285 1 2 0.000000 -1.228154 6.399438 42.046520 # Ta 
286 1 2 0.000000 -1.228154 6.399438 68.486519 # Ta 
287 1 2 0.000000 -3.692155 10.667211 15.606520 # Ta 
288 1 2 0.000000 -3.692155 10.667211 42.046520 # Ta 
289 1 2 0.000000 -3.692155 10.667211 68.486519 # Ta 
290 1 2 0.000000 6.163846 2.131666 15.606520 # Ta 
291 1 2 0.000000 6.163846 2.131666 42.046520 # Ta 
292 1 2 0.000000 6.163846 2.131666 68.486519 # Ta 
293 1 2 0.000000 3.699845 6.399438 15.606520 # Ta 
294 1 2 0.000000 3.699845 6.399438 42.046520 # Ta 
295 1 2 0.000000 3.699845 6.399438 68.486519 # Ta 
296 1 2 0.000000 1.235845 10.667211 15.606520 # Ta 
297 1 2 0.000000 1.235845 10.667211 42.046520 # Ta 
298 1 2 0.000000 1.235845 10.667211 68.486519 # Ta 
299 1 2 0.000000 11.091846 2.131666 15.606520 # Ta 
300 1 2 0.000000 11.091846 2.131666 42.046520 # Ta 
301 1 2 0.000000 11.091846 2.131666 68.486519 # Ta 
302 1 2 0.000000 8.627845 6.399438 15.606520 # Ta 
303 1 2 0.000000 8.627845 6.399438 42.046520 # Ta 
304 1 2 0.000000 8.627845 6.399438 68.486519 # Ta 
305 1 2 0.000000 6.163845 10.667211 15.606520 # Ta 
306 1 2 0.000000 6.163845 10.667211 42.046520 # Ta 
307 1 2 0.000000 6.163845 10.667211 68.486519 # Ta 
308 1 2 0.000000 3.692153 2.131666 15.606520 # Ta 
309 1 2 0.000000 3.692153 2.131666 42.046520 # Ta 
310 1 2 0.000000 3.692153 2.131666 68.486519 # Ta 
311 1 2 0.000000 1.228153 6.399438 15.606520 # Ta 
312 1 2 0.000000 1.228153 6.399438 42.046520 # Ta 
313 1 2 0.000000 1.228153 6.399438 68.486519 # Ta 
314 1 2 0.000000 -1.235848 10.667211 15.606520 # Ta 
315 1 2 0.000000 -1.235848 10.667211 42.046520 # Ta 
316 1 2 0.000000 -1.235848 10.667211 68.486519 # Ta 
317 1 2 0.000000 8.620153 2.131666 15.606520 # Ta 
318 1 2 0.000000 8.620153 2.131666 42.046520 # Ta 
319 1 2 0.000000 8.620153 2.131666 68.486519 # Ta 
320 1 2 0.000000 6.156153 6.399438 15.606520 # Ta 
321 1 2 0.000000 6.156153 6.399438 42.046520 # Ta 
322 1 2 0.000000 6.156153 6.399438 68.486519 # Ta 
323 1 2 0.000000 3.692152 10.667211 15.606520 # Ta 
324 1 2 0.000000 3.692152 10.667211 42.046520 # Ta 
325 1 2 0.000000 3.692152 10.667211 68.486519 # Ta 
326 1 2 0.000000 13.548153 2.131666 15.606520 # Ta 
327 1 2 0.000000 13.548153 2.131666 42.046520 # Ta 
328 1 2 0.000000 13.548153 2.131666 68.486519 # Ta 
329 1 2 0.000000 11.084152 6.399438 15.606520 # Ta 
330 1 2 0.000000 11.084152 6.399438 42.046520 # Ta 
331 1 2 0.000000 11.084152 6.399438 68.486519 # Ta 
332 1 2 0.000000 8.620152 10.667211 15.606520 # Ta 
333 1 2 0.000000 8.620152 10.667211 42.046520 # Ta 
334 1 2 0.000000 8.620152 10.667211 68.486519 # Ta 
335 1 2 0.000000 -1.228154 2.136107 10.833481 # Ta 
336 1 2 0.000000 -1.228154 2.136107 37.273479 # Ta 
337 1 2 0.000000 -1.228154 2.136107 63.713482 # Ta 
338 1 2 0.000000 -3.692154 6.403880 10.833481 # Ta 
339 1 2 0.000000 -3.692154 6.403880 37.273479 # Ta 
340 1 2 0.000000 -3.692154 6.403880 63.713482 # Ta 
341 1 2 0.000000 -6.156155 10.671653 10.833481 # Ta 
342 1 2 0.000000 -6.156155 10.671653 37.273479 # Ta 
343 1 2 0.000000 -6.156155 10.671653 63.713482 # Ta 
344 1 2 0.000000 3.699846 2.136107 10.833481 # Ta 
345 1 2 0.000000 3.699846 2.136107 37.273479 # Ta 
346 1 2 0.000000 3.699846 2.136107 63.713482 # Ta 
347 1 2 0.000000 1.235845 6.403880 10.833481 # Ta 
348 1 2 0.000000 1.235845 6.403880 37.273479 # Ta 
349 1 2 0.000000 1.235845 6.403880 63.713482 # Ta 
350 1 2 0.000000 -1.228155 10.671653 10.833481 # Ta 
351 1 2 0.000000 -1.228155 10.671653 37.273479 # Ta 
352 1 2 0.000000 -1.228155 10.671653 63.713482 # Ta 
353 1 2 0.000000 8.627846 2.136107 10.833481 # Ta 
354 1 2 0.000000 8.627846 2.136107 37.273479 # Ta 
355 1 2 0.000000 8.627846 2.136107 63.713482 # Ta 
356 1 2 0.000000 6.163845 6.403880 10.833481 # Ta 
357 1 2 0.000000 6.163845 6.403880 37.273479 # Ta 
358 1 2 0.000000 6.163845 6.403880 63.713482 # Ta 
359 1 2 0.000000 3.699845 10.671653 10.833481 # Ta 
360 1 2 0.000000 3.699845 10.671653 37.273479 # Ta 
361 1 2 0.000000 3.699845 10.671653 63.713482 # Ta 
362 1 2 0.000000 -0.000001 4.263331 10.833481 # Ta 
363 1 2 0.000000 -0.000001 4.263331 37.273479 # Ta 
364 1 2 0.000000 -0.000001 4.263331 63.713482 # Ta 
365 1 2 0.000000 -2.464001 8.531104 10.833481 # Ta 
366 1 2 0.000000 -2.464001 8.531104 37.273479 # Ta 
367 1 2 0.000000 -2.464001 8.531104 63.713482 # Ta 
368 1 2 0.000000 -4.928002 12.798877 10.833481 # Ta 
369 1 2 0.000000 -4.928002 12.798877 37.273479 # Ta 
370 1 2 0.000000 -4.928002 12.798877 63.713482 # Ta 
371 1 2 0.000000 4.927999 4.263331 10.833481 # Ta 
372 1 2 0.000000 4.927999 4.263331 37.273479 # Ta 
373 1 2 0.000000 4.927999 4.263331 63.713482 # Ta 
374 1 2 0.000000 2.463999 8.531104 10.833481 # Ta 
375 1 2 0.000000 2.463999 8.531104 37.273479 # Ta 
376 1 2 0.000000 2.463999 8.531104 63.713482 # Ta 
377 1 2 0.000000 -0.000002 12.798877 10.833481 # Ta 
378 1 2 0.000000 -0.000002 12.798877 37.273479 # Ta 
379 1 2 0.000000 -0.000002 12.798877 63.713482 # Ta 
380 1 2 0.000000 9.855999 4.263331 10.833481 # Ta 
381 1 2 0.000000 9.855999 4.263331 37.273479 # Ta 
382 1 2 0.000000 9.855999 4.263331 63.713482 # Ta 
383 1 2 0.000000 7.391999 8.531104 10.833481 # Ta 
384 1 2 0.000000 7.391999 8.531104 37.273479 # Ta 
385 1 2 0.000000 7.391999 8.531104 63.713482 # Ta 
386 1 2 0.000000 4.927998 12.798877 10.833481 # Ta 
387 1 2 0.000000 4.927998 12.798877 37.273479 # Ta 
388 1 2 0.000000 4.927998 12.798877 63.713482 # Ta 
389 1 2 0.000000 1.228153 2.136107 10.833481 # Ta 
390 1 2 0.000000 1.228153 2.136107 37.273479 # Ta 
391 1 2 0.000000 1.228153 2.136107 63.713482 # Ta 
392 1 2 0.000000 -1.235847 6.403880 10.833481 # Ta 
393 1 2 0.000000 -1.235847 6.403880 37.273479 # Ta 
394 1 2 0.000000 -1.235847 6.403880 63.713482 # Ta 
395 1 2 0.000000 -3.699848 10.671653 10.833481 # Ta 
396 1 2 0.000000 -3.699848 10.671653 37.273479 # Ta 
397 1 2 0.000000 -3.699848 10.671653 63.713482 # Ta 
398 1 2 0.000000 6.156153 2.136107 10.833481 # Ta 
399 1 2 0.000000 6.156153 2.136107 37.273479 # Ta 
400 1 2 0.000000 6.156153 2.136107 63.713482 # Ta 
401 1 2 0.000000 3.692153 6.403880 10.833481 # Ta 
402 1 2 0.000000 3.692153 6.403880 37.273479 # Ta 
403 1 2 0.000000 3.692153 6.403880 63.713482 # Ta 
404 1 2 0.000000 1.228152 10.671653 10.833481 # Ta 
405 1 2 0.000000 1.228152 10.671653 37.273479 # Ta 
406 1 2 0.000000 1.228152 10.671653 63.713482 # Ta 
407 1 2 0.000000 11.084153 2.136107 10.833481 # Ta 
408 1 2 0.000000 11.084153 2.136107 37.273479 # Ta 
409 1 2 0.000000 11.084153 2.136107 63.713482 # Ta 
410 1 2 0.000000 8.620152 6.403880 10.833481 # Ta 
411 1 2 0.000000 8.620152 6.403880 37.273479 # Ta 
412 1 2 0.000000 8.620152 6.403880 63.713482 # Ta 
413 1 2 0.000000 6.156152 10.671653 10.833481 # Ta 
414 1 2 0.000000 6.156152 10.671653 37.273479 # Ta 
415 1 2 0.000000 6.156152 10.671653 63.713482 # Ta 
416 1 2 0.000000 -0.000000 2.845182 17.626667 # Ta 
417 1 2 0.000000 -0.000000 2.845182 44.066666 # Ta 
418 1 2 0.000000 -0.000000 2.845182 70.506668 # Ta 
419 1 2 0.000000 -2.464001 7.112955 17.626667 # Ta 
420 1 2 0.000000 -2.464001 7.112955 44.066666 # Ta 
421 1 2 0.000000 -2.464001 7.112955 70.506668 # Ta 
422 1 2 0.000000 -4.928001 11.380727 17.626667 # Ta 
423 1 2 0.000000 -4.928001 11.380727 44.066666 # Ta 
424 1 2 0.000000 -4.928001 11.380727 70.506668 # Ta 
425 1 2 0.000000 4.927999 2.845182 17.626667 # Ta 
426 1 2 0.000000 4.927999 2.845182 44.066666 # Ta 
427 1 2 0.000000 4.927999 2.845182 70.506668 # Ta 
428 1 2 0.000000 2.463999 7.112955 17.626667 # Ta 
429 1 2 0.000000 2.463999 7.112955 44.066666 # Ta 
430 1 2 0.000000 2.463999 7.112955 70.506668 # Ta 
431 1 2 0.000000 -0.000002 11.380727 17.626667 # Ta 
432 1 2 0.000000 -0.000002 11.380727 44.066666 # Ta 
433 1 2 0.000000 -0.000002 11.380727 70.506668 # Ta 
434 1 2 0.000000 9.855999 2.845182 17.626667 # Ta 
435 1 2 0.000000 9.855999 2.845182 44.066666 # Ta 
436 1 2 0.000000 9.855999 2.845182 70.506668 # Ta 
437 1 2 0.000000 7.391999 7.112955 17.626667 # Ta 
438 1 2 0.000000 7.391999 7.112955 44.066666 # Ta 
439 1 2 0.000000 7.391999 7.112955 70.506668 # Ta 
440 1 2 0.000000 4.927998 11.380727 17.626667 # Ta 
441 1 2 0.000000 4.927998 11.380727 44.066666 # Ta 
442 1 2 0.000000 4.927998 11.380727 70.506668 # Ta 
443 1 2 0.000000 -0.000000 1.427032 24.419851 # Ta 
444 1 2 0.000000 -0.000000 1.427032 50.859852 # Ta 
445 1 2 0.000000 -0.000000 1.427032 77.299850 # Ta 
446 1 2 0.000000 -2.464001 5.694805 24.419851 # Ta 
447 1 2 0.000000 -2.464001 5.694805 50.859852 # Ta 
448 1 2 0.000000 -2.464001 5.694805 77.299850 # Ta 
449 1 2 0.000000 -4.928001 9.962578 24.419851 # Ta 
450 1 2 0.000000 -4.928001 9.962578 50.859852 # Ta 
451 1 2 0.000000 -4.928001 9.962578 77.299850 # Ta 
452 1 2 0.000000 4.928000 1.427032 24.419851 # Ta 
453 1 2 0.000000 4.928000 1.427032 50.859852 # Ta 
454 1 2 0.000000 4.928000 1.427032 77.299850 # Ta 
455 1 2 0.000000 2.463999 5.694805 24.419851 # Ta 
456 1 2 0.000000 2.463999 5.694805 50.859852 # Ta 
457 1 2 0.000000 2.463999 5.694805 77.299850 # Ta 
458 1 2 0.000000 -0.000001 9.962578 24.419851 # Ta 
459 1 2 0.000000 -0.000001 9.962578 50.859852 # Ta 
460 1 2 0.000000 -0.000001 9.962578 77.299850 # Ta 
461 1 2 0.000000 9.855999 1.427032 24.419851 # Ta 
462 1 2 0.000000 9.855999 1.427032 50.859852 # Ta 
463 1 2 0.000000 9.855999 1.427032 77.299850 # Ta 
464 1 2 0.000000 7.391999 5.694805 24.419851 # Ta 
465 1 2 0.000000 7.391999 5.694805 50.859852 # Ta 
466 1 2 0.000000 7.391999 5.694805 77.299850 # Ta 
467 1 2 0.000000 4.927998 9.962578 24.419851 # Ta 
468 1 2 0.000000 4.927998 9.962578 50.859852 # Ta 
469 1 2 0.000000 4.927998 9.962578 77.299850 # Ta 
470 1 2 0.000000 -1.228154 3.554257 24.419851 # Ta 
471 1 2 0.000000 -1.228154 3.554257 50.859852 # Ta 
472 1 2 0.000000 -1.228154 3.554257 77.299850 # Ta 
473 1 2 0.000000 -3.692155 7.822029 24.419851 # Ta 
474 1 2 0.000000 -3.692155 7.822029 50.859852 # Ta 
475 1 2 0.000000 -3.692155 7.822029 77.299850 # Ta 
476 1 2 0.000000 -6.156155 12.089802 24.419851 # Ta 
477 1 2 0.000000 -6.156155 12.089802 50.859852 # Ta 
478 1 2 0.000000 -6.156155 12.089802 77.299850 # Ta 
479 1 2 0.000000 3.699846 3.554257 24.419851 # Ta 
480 1 2 0.000000 3.699846 3.554257 50.859852 # Ta 
481 1 2 0.000000 3.699846 3.554257 77.299850 # Ta 
482 1 2 0.000000 1.235845 7.822029 24.419851 # Ta 
483 1 2 0.000000 1.235845 7.822029 50.859852 # Ta 
484 1 2 0.000000 1.235845 7.822029 77.299850 # Ta 
485 1 2 0.000000 -1.228155 12.089802 24.419851 # Ta 
486 1 2 0.000000 -1.228155 12.089802 50.859852 # Ta 
487 1 2 0.000000 -1.228155 12.089802 77.299850 # Ta 
488 1 2 0.000000 8.627845 3.554257 24.419851 # Ta 
489 1 2 0.000000 8.627845 3.554257 50.859852 # Ta 
490 1 2 0.000000 8.627845 3.554257 77.299850 # Ta 
491 1 2 0.000000 6.163845 7.822029 24.419851 # Ta 
492 1 2 0.000000 6.163845 7.822029 50.859852 # Ta 
493 1 2 0.000000 6.163845 7.822029 77.299850 # Ta 
494 1 2 0.000000 3.699845 12.089802 24.419851 # Ta 
495 1 2 0.000000 3.699845 12.089802 50.859852 # Ta 
496 1 2 0.000000 3.699845 12.089802 77.299850 # Ta 
497 1 2 0.000000 1.228153 3.554257 24.419851 # Ta 
498 1 2 0.000000 1.228153 3.554257 50.859852 # Ta 
499 1 2 0.000000 1.228153 3.554257 77.299850 # Ta 
500 1 2 0.000000 -1.235847 7.822029 24.419851 # Ta 
501 1 2 0.000000 -1.235847 7.822029 50.859852 # Ta 
502 1 2 0.000000 -1.235847 7.822029 77.299850 # Ta 
503 1 2 0.000000 -3.699848 12.089802 24.419851 # Ta 
504 1 2 0.000000 -3.699848 12.089802 50.859852 # Ta 
505 1 2 0.000000 -3.699848 12.089802 77.299850 # Ta 
506 1 2 0.000000 6.156153 3.554257 24.419851 # Ta 
507 1 2 0.000000 6.156153 3.554257 50.859852 # Ta 
508 1 2 0.000000 6.156153 3.554257 77.299850 # Ta 
509 1 2 0.000000 3.692152 7.822029 24.419851 # Ta 
510 1 2 0.000000 3.692152 7.822029 50.859852 # Ta 
511 1 2 0.000000 3.692152 7.822029 77.299850 # Ta 
512 1 2 0.000000 1.228152 12.089802 24.419851 # Ta 
513 1 2 0.000000 1.228152 12.089802 50.859852 # Ta 
514 1 2 0.000000 1.228152 12.089802 77.299850 # Ta 
515 1 2 0.000000 11.084153 3.554257 24.419851 # Ta 
516 1 2 0.000000 11.084153 3.554257 50.859852 # Ta 
517 1 2 0.000000 11.084153 3.554257 77.299850 # Ta 
518 1 2 0.000000 8.620152 7.822029 24.419851 # Ta 
519 1 2 0.000000 8.620152 7.822029 50.859852 # Ta 
520 1 2 0.000000 8.620152 7.822029 77.299850 # Ta 
521 1 2 0.000000 6.156152 12.089802 24.419851 # Ta 
522 1 2 0.000000 6.156152 12.089802 50.859852 # Ta 
523 1 2 0.000000 6.156152 12.089802 77.299850 # Ta 
524 1 2 0.000000 1.235846 3.558698 19.646814 # Ta 
525 1 2 0.000000 1.235846 3.558698 46.086815 # Ta 
526 1 2 0.000000 1.235846 3.558698 72.526817 # Ta 
527 1 2 0.000000 -1.228155 7.826470 19.646814 # Ta 
528 1 2 0.000000 -1.228155 7.826470 46.086815 # Ta 
529 1 2 0.000000 -1.228155 7.826470 72.526817 # Ta 
530 1 2 0.000000 -3.692155 12.094243 19.646814 # Ta 
531 1 2 0.000000 -3.692155 12.094243 46.086815 # Ta 
532 1 2 0.000000 -3.692155 12.094243 72.526817 # Ta 
533 1 2 0.000000 6.163846 3.558698 19.646814 # Ta 
534 1 2 0.000000 6.163846 3.558698 46.086815 # Ta 
535 1 2 0.000000 6.163846 3.558698 72.526817 # Ta 
536 1 2 0.000000 3.699845 7.826470 19.646814 # Ta 
537 1 2 0.000000 3.699845 7.826470 46.086815 # Ta 
538 1 2 0.000000 3.699845 7.826470 72.526817 # Ta 
539 1 2 0.000000 1.235845 12.094243 19.646814 # Ta 
540 1 2 0.000000 1.235845 12.094243 46.086815 # Ta 
541 1 2 0.000000 1.235845 12.094243 72.526817 # Ta 
542 1 2 0.000000 11.091845 3.558698 19.646814 # Ta 
543 1 2 0.000000 11.091845 3.558698 46.086815 # Ta 
544 1 2 0.000000 11.091845 3.558698 72.526817 # Ta 
545 1 2 0.000000 8.627845 7.826470 19.646814 # Ta 
546 1 2 0.000000 8.627845 7.826470 46.086815 # Ta 
547 1 2 0.000000 8.627845 7.826470 72.526817 # Ta 
548 1 2 0.000000 6.163845 12.094243 19.646814 # Ta 
549 1 2 0.000000 6.163845 12.094243 46.086815 # Ta 
550 1 2 0.000000 6.163845 12.094243 72.526817 # Ta 
551 1 2 0.000000 -0.000000 1.418150 19.646814 # Ta 
552 1 2 0.000000 -0.000000 1.418150 46.086815 # Ta 
553 1 2 0.000000 -0.000000 1.418150 72.526817 # Ta 
554 1 2 0.000000 -2.464001 5.685922 19.646814 # Ta 
555 1 2 0.000000 -2.464001 5.685922 46.086815 # Ta 
556 1 2 0.000000 -2.464001 5.685922 72.526817 # Ta 
557 1 2 0.000000 -4.928001 9.953695 19.646814 # Ta 
558 1 2 0.000000 -4.928001 9.953695 46.086815 # Ta 
559 1 2 0.000000 -4.928001 9.953695 72.526817 # Ta 
560 1 2 0.000000 4.928000 1.418150 19.646814 # Ta 
561 1 2 0.000000 4.928000 1.418150 46.086815 # Ta 
562 1 2 0.000000 4.928000 1.418150 72.526817 # Ta 
563 1 2 0.000000 2.463999 5.685922 19.646814 # Ta 
564 1 2 0.000000 2.463999 5.685922 46.086815 # Ta 
565 1 2 0.000000 2.463999 5.685922 72.526817 # Ta 