ITEM: TIMESTEP
0
ITEM: NUMBER OF ATOMS
1216
ITEM: BOX BOUNDS pp pp pp
0.0000000000000000e+00 1.4800000000000001e+01
0.0000000000000000e+00 1.4800000000000001e+01
0.0000000000000000e+00 7.9400000000000006e+01
ITEM: ATOMS id type xs ys zs
1 2 0 0 0
146 2 0.0835031 0.0482105 0.0254427
173 2 0.166486 0.191942 0.0254427
200 2 0.24947 0.0482105 0.0254427
680 1 0 0.192242 0.00469649
734 1 0 0.192242 0.0389729
33 2 0.332973 0 0
155 2 0.416476 0.0482105 0.0254427
182 2 0.499459 0.191942 0.0254427
689 1 0.332973 0.192242 0.00469649
743 1 0.332973 0.192242 0.0389729
49 2 0.665946 0 0
164 2 0.749449 0.0482105 0.0254427
209 2 0.582443 0.0482105 0.0254427
698 1 0.665946 0.192242 0.00469649
752 1 0.665946 0.192242 0.0389729
5 2 0.998919 0 0
191 2 0.832432 0.191942 0.0254427
218 2 0.915416 0.0482105 0.0254427
41 2 0.166486 0.288363 0
158 2 0.24999 0.336574 0.0254427
203 2 0.0829833 0.336574 0.0254427
692 1 0.166486 0.480605 0.00469649
746 1 0.166486 0.480605 0.0389729
57 2 0.499459 0.288363 0
185 2 0.332973 0.480305 0.0254427
212 2 0.415956 0.336574 0.0254427
701 1 0.499459 0.480605 0.00469649
755 1 0.499459 0.480605 0.0389729
167 2 0.582962 0.336574 0.0254427
194 2 0.665946 0.480305 0.0254427
221 2 0.748929 0.336574 0.0254427
17 2 0.833514 0.288363 0
19 2 0.832432 0.288363 0
149 2 0.917017 0.336574 0.0254427
176 2 1 0.480305 0.0254427
683 1 0.833513 0.480605 0.00469649
737 1 0.833513 0.480605 0.0389729
161 2 0.083503 0.624937 0.0254427
215 2 0.24947 0.624937 0.0254427
61 2 0.332973 0.576726 0
170 2 0.416476 0.624937 0.0254427
25 2 0.667027 0.576726 0
27 2 0.665946 0.576726 0
224 2 0.582443 0.624937 0.0254427
45 2 1 0.576726 0
152 2 0.75053 0.624937 0.0254427
206 2 0.916497 0.624937 0.0254427
51 2 0.166486 0.865089 0
188 2 0.166486 0.768668 0.0254427
7 2 0.499459 0.865089 0
197 2 0.499459 0.768668 0.0254427
704 1 0.332973 0.768968 0.00469649
758 1 0.332973 0.768968 0.0389729
3 2 0.50054 0.865089 0
686 1 0.667027 0.768968 0.00469649
740 1 0.667027 0.768968 0.0389729
35 2 0.833513 0.865089 0
179 2 0.833513 0.768668 0.0254427
695 1 1 0.768968 0.00469649
749 1 1 0.768968 0.0389729
65 2 0.166486 0.192542 0.0855565
92 2 0.24999 0.0479105 0.0855565
119 2 0.0829834 0.0479105 0.0855565
605 1 0 0 0.0553109
653 1 0.166486 0.096121 0.0556883
761 1 0 0.192242 0.0720262
74 2 0.499459 0.192542 0.0855565
128 2 0.415956 0.0479105 0.0855565
629 1 0.332973 0 0.0553109
662 1 0.499459 0.096121 0.0556883
770 1 0.332973 0.192242 0.0720262
101 2 0.582963 0.0479105 0.0855565
137 2 0.748929 0.0479105 0.0855565
641 1 0.665946 0 0.0553109
779 1 0.665946 0.192242 0.0720262
83 2 0.832432 0.192542 0.0855565
110 2 0.915936 0.0479105 0.0855565
607 1 0.998919 0 0.0553109
671 1 0.832432 0.096121 0.0556883
95 2 0.083503 0.336273 0.0855565
131 2 0.24947 0.336273 0.0855565
635 1 0.166486 0.288363 0.0553109
773 1 0.166486 0.480605 0.0720262
77 2 0.332973 0.480905 0.0855565
104 2 0.416476 0.336273 0.0855565
647 1 0.499459 0.288363 0.0553109
665 1 0.332973 0.384484 0.0556883
782 1 0.499459 0.480605 0.0720262
86 2 0.665946 0.480905 0.0855565
113 2 0.749449 0.336273 0.0855565
140 2 0.582443 0.336273 0.0855565
674 1 0.665946 0.384484 0.0556883
68 2 1 0.480905 0.0855565
122 2 0.916497 0.336273 0.0855565
617 1 0.833514 0.288363 0.0553109
618 1 0.832432 0.288363 0.0553109
656 1 1 0.384484 0.0556883
764 1 0.833513 0.480605 0.0720262
107 2 0.24999 0.624636 0.0855565
134 2 0.0829833 0.624636 0.0855565
668 1 0.166486 0.672847 0.0556883
143 2 0.415956 0.624636 0.0855565
650 1 0.332973 0.576726 0.0553109
677 1 0.499459 0.672847 0.0556883
116 2 0.582962 0.624636 0.0855565
623 1 0.667027 0.576726 0.0553109
624 1 0.665946 0.576726 0.0553109
98 2 0.917017 0.624636 0.0855565
125 2 0.75001 0.624636 0.0855565
638 1 1 0.576726 0.0553109
659 1 0.833513 0.672847 0.0556883
80 2 0.166486 0.769268 0.0855565
642 1 0.166486 0.865089 0.0553109
89 2 0.499459 0.769268 0.0855565
608 1 0.499459 0.865089 0.0553109
785 1 0.332973 0.768968 0.0720262
606 1 0.50054 0.865089 0.0553109
767 1 0.667027 0.768968 0.0720262
71 2 0.833513 0.769268 0.0855565
630 1 0.833513 0.865089 0.0553109
776 1 1 0.768968 0.0720262
227 2 0.166486 0.096121 0.110999
707 1 0 0.192242 0.106303
842 1 0 0 0.115696
236 2 0.499459 0.096121 0.110999
716 1 0.332973 0.192242 0.106303
866 1 0.332973 0 0.115696
725 1 0.665946 0.192242 0.106303
878 1 0.665946 0 0.115696
245 2 0.832432 0.096121 0.110999
844 1 0.998919 0 0.115696
719 1 0.166486 0.480605 0.106303
872 1 0.166486 0.288363 0.115696
239 2 0.332973 0.384484 0.110999
728 1 0.499459 0.480605 0.106303
884 1 0.499459 0.288363 0.115696
248 2 0.665946 0.384484 0.110999
230 2 1 0.384484 0.110999
710 1 0.833513 0.480605 0.106303
854 1 0.833514 0.288363 0.115696
855 1 0.832432 0.288363 0.115696
242 2 0.166486 0.672847 0.110999
251 2 0.499459 0.672847 0.110999
887 1 0.332973 0.576726 0.115696
860 1 0.667027 0.576726 0.115696
861 1 0.665946 0.576726 0.115696
233 2 0.833513 0.672847 0.110999
875 1 1 0.576726 0.115696
879 1 0.166486 0.865089 0.115696
731 1 0.332973 0.768968 0.106303
845 1 0.499459 0.865089 0.115696
713 1 0.667027 0.768968 0.106303
843 1 0.50054 0.865089 0.115696
722 1 1 0.768968 0.106303
867 1 0.833513 0.865089 0.115696
344 2 0.24999 0.144332 0.136442
389 2 0.0829833 0.144332 0.136442
788 1 0.166486 0.096121 0.16631
815 1 0 0.192242 0.166687
938 1 0 0 0.149972
398 2 0.415956 0.144332 0.136442
797 1 0.499459 0.096121 0.16631
824 1 0.332973 0.192242 0.166687
962 1 0.332973 0 0.149972
353 2 0.582963 0.144332 0.136442
407 2 0.748929 0.144332 0.136442
833 1 0.665946 0.192242 0.166687
974 1 0.665946 0 0.149972
335 2 0.917017 0.144332 0.136442
806 1 0.832432 0.096121 0.16631
940 1 0.998919 0 0.149972
347 2 0.083503 0.432695 0.136442
401 2 0.24947 0.432695 0.136442
827 1 0.166486 0.480605 0.166687
968 1 0.166486 0.288363 0.149972
356 2 0.416476 0.432695 0.136442
371 2 0.332973 0.288063 0.136442
800 1 0.332973 0.384484 0.16631
836 1 0.499459 0.480605 0.166687
980 1 0.499459 0.288363 0.149972
380 2 0.665946 0.288063 0.136442
410 2 0.582443 0.432695 0.136442
809 1 0.665946 0.384484 0.16631
338 2 0.75053 0.432695 0.136442
362 2 1 0.288063 0.136442
392 2 0.916497 0.432695 0.136442
791 1 1 0.384484 0.16631
818 1 0.833513 0.480605 0.166687
950 1 0.833514 0.288363 0.149972
951 1 0.832432 0.288363 0.149972
359 2 0.24999 0.721058 0.136442
374 2 0.166486 0.576426 0.136442
404 2 0.0829832 0.721058 0.136442
803 1 0.166486 0.672847 0.16631
383 2 0.499459 0.576426 0.136442
413 2 0.415956 0.721058 0.136442
812 1 0.499459 0.672847 0.16631
983 1 0.332973 0.576726 0.149972
341 2 0.584044 0.721058 0.136442
956 1 0.667027 0.576726 0.149972
957 1 0.665946 0.576726 0.149972
350 2 0.917017 0.721058 0.136442
365 2 0.833513 0.576426 0.136442
395 2 0.75001 0.721058 0.136442
794 1 0.833513 0.672847 0.16631
971 1 1 0.576726 0.149972
975 1 0.166486 0.865089 0.149972
386 2 0.332973 0.864789 0.136442
839 1 0.332973 0.768968 0.166687
941 1 0.499459 0.865089 0.149972
368 2 0.667027 0.864789 0.136442
821 1 0.667027 0.768968 0.166687
939 1 0.50054 0.865089 0.149972
377 2 1 0.864789 0.136442
830 1 1 0.768968 0.166687
963 1 0.833513 0.865089 0.149972
254 2 0.166486 0.000300068 0.196556
281 2 0.0835031 0.144031 0.196556
308 2 0.24947 0.144031 0.196556
416 2 0 0.192242 0.221998
890 1 0 0 0.217302
986 1 0 0 0.183025
1109 1 0.166486 0.096121 0.226695
263 2 0.499459 0.000300068 0.196556
290 2 0.416476 0.144031 0.196556
425 2 0.332973 0.192242 0.221998
914 1 0.332973 0 0.217302
1010 1 0.332973 0 0.183025
1118 1 0.499459 0.096121 0.226695
299 2 0.749449 0.144031 0.196556
317 2 0.582443 0.144031 0.196556
434 2 0.665946 0.192242 0.221998
926 1 0.665946 0 0.217302
1022 1 0.665946 0 0.183025
272 2 0.832432 0.000300068 0.196556
326 2 0.915416 0.144031 0.196556
892 1 0.998919 0 0.217302
988 1 0.998919 0 0.183025
1127 1 0.832432 0.096121 0.226695
257 2 0 0.288663 0.196556
293 2 0.24999 0.432394 0.196556
311 2 0.0829833 0.432394 0.196556
428 2 0.166486 0.480605 0.221998
920 1 0.166486 0.288363 0.217302
1016 1 0.166486 0.288363 0.183025
266 2 0.332973 0.288663 0.196556
320 2 0.415956 0.432394 0.196556
437 2 0.499459 0.480605 0.221998
932 1 0.499459 0.288363 0.217302
1028 1 0.499459 0.288363 0.183025
1121 1 0.332973 0.384484 0.226695
275 2 0.665946 0.288663 0.196556
302 2 0.582962 0.432394 0.196556
329 2 0.748929 0.432394 0.196556
1130 1 0.665946 0.384484 0.226695
284 2 0.917017 0.432394 0.196556
419 2 0.833513 0.480605 0.221998
902 1 0.833514 0.288363 0.217302
903 1 0.832432 0.288363 0.217302
998 1 0.833514 0.288363 0.183025
999 1 0.832432 0.288363 0.183025
1112 1 1 0.384484 0.226695
269 2 0.166486 0.577026 0.196556
296 2 0.083503 0.720757 0.196556
323 2 0.24947 0.720757 0.196556
1124 1 0.166486 0.672847 0.226695
278 2 0.499459 0.577026 0.196556
305 2 0.416476 0.720757 0.196556
935 1 0.332973 0.576726 0.217302
1031 1 0.332973 0.576726 0.183025
1133 1 0.499459 0.672847 0.226695
332 2 0.582443 0.720757 0.196556
908 1 0.667027 0.576726 0.217302
909 1 0.665946 0.576726 0.217302
1004 1 0.667027 0.576726 0.183025
1005 1 0.665946 0.576726 0.183025
260 2 0.833513 0.577026 0.196556
287 2 0.75053 0.720757 0.196556
314 2 0.916497 0.720757 0.196556
923 1 1 0.576726 0.217302
1019 1 1 0.576726 0.183025
1115 1 0.833513 0.672847 0.226695
927 1 0.166486 0.865089 0.217302
1023 1 0.166486 0.865089 0.183025
440 2 0.332973 0.768968 0.221998
893 1 0.499459 0.865089 0.217302
989 1 0.499459 0.865089 0.183025
422 2 0.667027 0.768968 0.221998
891 1 0.50054 0.865089 0.217302
987 1 0.50054 0.865089 0.183025
431 2 1 0.768968 0.221998
915 1 0.833513 0.865089 0.217302
1011 1 0.833513 0.865089 0.183025
524 2 0.0835031 0.240453 0.247441
551 2 0 0.0958209 0.247441
587 2 0.24947 0.240453 0.247441
1163 1 0.166486 0.096121 0.260971
533 2 0.416476 0.240453 0.247441
560 2 0.332973 0.0958209 0.247441
1172 1 0.499459 0.096121 0.260971
542 2 0.749449 0.240453 0.247441
569 2 0.665946 0.0958209 0.247441
596 2 0.582443 0.240453 0.247441
578 2 0.916497 0.240453 0.247441
1181 1 0.832432 0.096121 0.260971
563 2 0.166486 0.384184 0.247441
572 2 0.499459 0.384184 0.247441
1175 1 0.332973 0.384484 0.260971
1184 1 0.665946 0.384484 0.260971
554 2 0.833513 0.384184 0.247441
1166 1 1 0.384484 0.260971
536 2 0.24999 0.528816 0.247441
590 2 0.0829833 0.528816 0.247441
1178 1 0.166486 0.672847 0.260971
575 2 0.332973 0.672547 0.247441
599 2 0.415956 0.528816 0.247441
1187 1 0.499459 0.672847 0.260971
545 2 0.582962 0.528816 0.247441
557 2 0.667027 0.672547 0.247441
527 2 0.917017 0.528816 0.247441
566 2 1 0.672547 0.247441
581 2 0.75001 0.528816 0.247441
1169 1 0.833513 0.672847 0.260971
539 2 0.083503 0.817179 0.247441
602 2 0.24947 0.817179 0.247441
548 2 0.416476 0.817179 0.247441
584 2 0.583524 0.817179 0.247441
530 2 0.75053 0.817179 0.247441
593 2 0.916497 0.817179 0.247441
443 2 0 0.0964211 0.307555
479 2 0.24999 0.240152 0.307555
497 2 0.0829833 0.240152 0.307555
1034 1 0 0.192242 0.277309
1061 1 0 0 0.277687
1190 1 0.166486 0.096121 0.294025
452 2 0.332973 0.0964211 0.307555
506 2 0.415956 0.240152 0.307555
1043 1 0.332973 0.192242 0.277309
1085 1 0.332973 0 0.277687
1199 1 0.499459 0.096121 0.294025
461 2 0.665946 0.0964211 0.307555
488 2 0.582962 0.240152 0.307555
515 2 0.748929 0.240152 0.307555
1052 1 0.665946 0.192242 0.277309
1097 1 0.665946 0 0.277687
470 2 0.917017 0.240152 0.307555
1063 1 0.998919 0 0.277687
1208 1 0.832432 0.096121 0.294025
455 2 0.166486 0.384784 0.307555
1046 1 0.166486 0.480605 0.277309
1091 1 0.166486 0.288363 0.277687
464 2 0.499459 0.384784 0.307555
1055 1 0.499459 0.480605 0.277309
1103 1 0.499459 0.288363 0.277687
1202 1 0.332973 0.384484 0.294025
1211 1 0.665946 0.384484 0.294025
446 2 0.833513 0.384784 0.307555
1037 1 0.833513 0.480605 0.277309
1073 1 0.833514 0.288363 0.277687
1074 1 0.832432 0.288363 0.277687
1193 1 1 0.384484 0.294025
482 2 0.083503 0.528515 0.307555
509 2 0.24947 0.528515 0.307555
1205 1 0.166486 0.672847 0.294025
467 2 0.332973 0.673147 0.307555
491 2 0.416476 0.528515 0.307555
1106 1 0.332973 0.576726 0.277687
1214 1 0.499459 0.672847 0.294025
449 2 0.667027 0.673147 0.307555
518 2 0.582443 0.528515 0.307555
1079 1 0.667027 0.576726 0.277687
1080 1 0.665946 0.576726 0.277687
458 2 1 0.673147 0.307555
473 2 0.75053 0.528515 0.307555
500 2 0.916497 0.528515 0.307555
1094 1 1 0.576726 0.277687
1196 1 0.833513 0.672847 0.294025
494 2 0.24999 0.816879 0.307555
512 2 0.0829832 0.816879 0.307555
1098 1 0.166486 0.865089 0.277687
521 2 0.415956 0.816879 0.307555
1058 1 0.332973 0.768968 0.277309
1064 1 0.499459 0.865089 0.277687
476 2 0.584044 0.816879 0.307555
1040 1 0.667027 0.768968 0.277309
1062 1 0.50054 0.865089 0.277687
485 2 0.917017 0.816879 0.307555
503 2 0.75001 0.816879 0.307555
1049 1 1 0.768968 0.277309
1086 1 0.833513 0.865089 0.277687
9 2 0 0 0.332997
147 2 0.0835031 0.0482105 0.35844
174 2 0.166486 0.191942 0.35844
201 2 0.24947 0.0482105 0.35844
681 1 0 0.192242 0.337694
1136 1 0.166486 0.096121 0.328301
37 2 0.332973 0 0.332997
156 2 0.416476 0.0482105 0.35844
183 2 0.499459 0.191942 0.35844
690 1 0.332973 0.192242 0.337694
1145 1 0.499459 0.096121 0.328301
53 2 0.665946 0 0.332997
165 2 0.749449 0.0482105 0.35844
210 2 0.582443 0.0482105 0.35844
699 1 0.665946 0.192242 0.337694
11 2 0.998919 0 0.332997
192 2 0.832432 0.191942 0.35844
219 2 0.915416 0.0482105 0.35844
1154 1 0.832432 0.096121 0.328301
43 2 0.166486 0.288363 0.332997
159 2 0.24999 0.336574 0.35844
204 2 0.0829833 0.336574 0.35844
693 1 0.166486 0.480605 0.337694
59 2 0.499459 0.288363 0.332997
186 2 0.332973 0.480305 0.35844
213 2 0.415956 0.336574 0.35844
702 1 0.499459 0.480605 0.337694
1148 1 0.332973 0.384484 0.328301
168 2 0.582962 0.336574 0.35844
195 2 0.665946 0.480305 0.35844
222 2 0.748929 0.336574 0.35844
1157 1 0.665946 0.384484 0.328301
21 2 0.833514 0.288363 0.332997
22 2 0.832432 0.288363 0.332997
150 2 0.917017 0.336574 0.35844
177 2 1 0.480305 0.35844
684 1 0.833513 0.480605 0.337694
1139 1 1 0.384484 0.328301
162 2 0.083503 0.624937 0.35844
216 2 0.24947 0.624937 0.35844
1151 1 0.166486 0.672847 0.328301
63 2 0.332973 0.576726 0.332997
171 2 0.416476 0.624937 0.35844
1160 1 0.499459 0.672847 0.328301
29 2 0.667027 0.576726 0.332997
30 2 0.665946 0.576726 0.332997
225 2 0.582443 0.624937 0.35844
47 2 1 0.576726 0.332997
153 2 0.75053 0.624937 0.35844
207 2 0.916497 0.624937 0.35844
1142 1 0.833513 0.672847 0.328301
54 2 0.166486 0.865089 0.332997
189 2 0.166486 0.768668 0.35844
12 2 0.499459 0.865089 0.332997
198 2 0.499459 0.768668 0.35844
705 1 0.332973 0.768968 0.337694
10 2 0.50054 0.865089 0.332997
687 1 0.667027 0.768968 0.337694
38 2 0.833513 0.865089 0.332997
180 2 0.833513 0.768668 0.35844
696 1 1 0.768968 0.337694
609 1 0 0 0.388308
654 1 0.166486 0.096121 0.388686
735 1 0 0.192242 0.37197
762 1 0 0.192242 0.405024
631 1 0.332973 0 0.388308
663 1 0.499459 0.096121 0.388686
744 1 0.332973 0.192242 0.37197
771 1 0.332973 0.192242 0.405024
643 1 0.665946 0 0.388308
753 1 0.665946 0.192242 0.37197
780 1 0.665946 0.192242 0.405024
611 1 0.998919 0 0.388308
672 1 0.832432 0.096121 0.388686
636 1 0.166486 0.288363 0.388308
747 1 0.166486 0.480605 0.37197
774 1 0.166486 0.480605 0.405024
648 1 0.499459 0.288363 0.388308
666 1 0.332973 0.384484 0.388686
756 1 0.499459 0.480605 0.37197
783 1 0.499459 0.480605 0.405024
675 1 0.665946 0.384484 0.388686
619 1 0.833514 0.288363 0.388308
620 1 0.832432 0.288363 0.388308
657 1 1 0.384484 0.388686
738 1 0.833513 0.480605 0.37197
765 1 0.833513 0.480605 0.405024
669 1 0.166486 0.672847 0.388686
651 1 0.332973 0.576726 0.388308
678 1 0.499459 0.672847 0.388686
625 1 0.667027 0.576726 0.388308
626 1 0.665946 0.576726 0.388308
639 1 1 0.576726 0.388308
660 1 0.833513 0.672847 0.388686
644 1 0.166486 0.865089 0.388308
612 1 0.499459 0.865089 0.388308
759 1 0.332973 0.768968 0.37197
786 1 0.332973 0.768968 0.405024
610 1 0.50054 0.865089 0.388308
741 1 0.667027 0.768968 0.37197
768 1 0.667027 0.768968 0.405024
632 1 0.833513 0.865089 0.388308
750 1 1 0.768968 0.37197
777 1 1 0.768968 0.405024
66 2 0.166486 0.192542 0.418554
93 2 0.24999 0.0479105 0.418554
120 2 0.0829834 0.0479105 0.418554
228 2 0.166486 0.096121 0.443997
708 1 0 0.192242 0.4393
846 1 0 0 0.448693
75 2 0.499459 0.192542 0.418554
129 2 0.415956 0.0479105 0.418554
237 2 0.499459 0.096121 0.443997
717 1 0.332973 0.192242 0.4393
868 1 0.332973 0 0.448693
102 2 0.582963 0.0479105 0.418554
138 2 0.748929 0.0479105 0.418554
726 1 0.665946 0.192242 0.4393
880 1 0.665946 0 0.448693
84 2 0.832432 0.192542 0.418554
111 2 0.915936 0.0479105 0.418554
246 2 0.832432 0.096121 0.443997
848 1 0.998919 0 0.448693
96 2 0.083503 0.336273 0.418554
132 2 0.24947 0.336273 0.418554
720 1 0.166486 0.480605 0.4393
873 1 0.166486 0.288363 0.448693
78 2 0.332973 0.480905 0.418554
105 2 0.416476 0.336273 0.418554
240 2 0.332973 0.384484 0.443997
729 1 0.499459 0.480605 0.4393
885 1 0.499459 0.288363 0.448693
87 2 0.665946 0.480905 0.418554
114 2 0.749449 0.336273 0.418554
141 2 0.582443 0.336273 0.418554
249 2 0.665946 0.384484 0.443997
69 2 1 0.480905 0.418554
123 2 0.916497 0.336273 0.418554
231 2 1 0.384484 0.443997
711 1 0.833513 0.480605 0.4393
856 1 0.833514 0.288363 0.448693
857 1 0.832432 0.288363 0.448693
108 2 0.24999 0.624636 0.418554
135 2 0.0829833 0.624636 0.418554
243 2 0.166486 0.672847 0.443997
144 2 0.415956 0.624636 0.418554
252 2 0.499459 0.672847 0.443997
888 1 0.332973 0.576726 0.448693
117 2 0.582962 0.624636 0.418554
862 1 0.667027 0.576726 0.448693
863 1 0.665946 0.576726 0.448693
99 2 0.917017 0.624636 0.418554
126 2 0.75001 0.624636 0.418554
234 2 0.833513 0.672847 0.443997
876 1 1 0.576726 0.448693
81 2 0.166486 0.769268 0.418554
881 1 0.166486 0.865089 0.448693
90 2 0.499459 0.769268 0.418554
732 1 0.332973 0.768968 0.4393
849 1 0.499459 0.865089 0.448693
714 1 0.667027 0.768968 0.4393
847 1 0.50054 0.865089 0.448693
72 2 0.833513 0.769268 0.418554
723 1 1 0.768968 0.4393
869 1 0.833513 0.865089 0.448693
345 2 0.24999 0.144332 0.469439
390 2 0.0829833 0.144332 0.469439
789 1 0.166486 0.096121 0.499308
816 1 0 0.192242 0.499685
942 1 0 0 0.48297
399 2 0.415956 0.144332 0.469439
798 1 0.499459 0.096121 0.499308
825 1 0.332973 0.192242 0.499685
964 1 0.332973 0 0.48297
354 2 0.582963 0.144332 0.469439
408 2 0.748929 0.144332 0.469439
834 1 0.665946 0.192242 0.499685
976 1 0.665946 0 0.48297
336 2 0.917017 0.144332 0.469439
807 1 0.832432 0.096121 0.499308
944 1 0.998919 0 0.48297
348 2 0.083503 0.432695 0.469439
402 2 0.24947 0.432695 0.469439
828 1 0.166486 0.480605 0.499685
969 1 0.166486 0.288363 0.48297
357 2 0.416476 0.432695 0.469439
372 2 0.332973 0.288063 0.469439
801 1 0.332973 0.384484 0.499308
837 1 0.499459 0.480605 0.499685
981 1 0.499459 0.288363 0.48297
381 2 0.665946 0.288063 0.469439
411 2 0.582443 0.432695 0.469439
810 1 0.665946 0.384484 0.499308
339 2 0.75053 0.432695 0.469439
363 2 1 0.288063 0.469439
393 2 0.916497 0.432695 0.469439
792 1 1 0.384484 0.499308
819 1 0.833513 0.480605 0.499685
952 1 0.833514 0.288363 0.48297
953 1 0.832432 0.288363 0.48297
360 2 0.24999 0.721058 0.469439
375 2 0.166486 0.576426 0.469439
405 2 0.0829832 0.721058 0.469439
804 1 0.166486 0.672847 0.499308
384 2 0.499459 0.576426 0.469439
414 2 0.415956 0.721058 0.469439
813 1 0.499459 0.672847 0.499308
984 1 0.332973 0.576726 0.48297
342 2 0.584044 0.721058 0.469439
958 1 0.667027 0.576726 0.48297
959 1 0.665946 0.576726 0.48297
351 2 0.917017 0.721058 0.469439
366 2 0.833513 0.576426 0.469439
396 2 0.75001 0.721058 0.469439
795 1 0.833513 0.672847 0.499308
972 1 1 0.576726 0.48297
977 1 0.166486 0.865089 0.48297
387 2 0.332973 0.864789 0.469439
840 1 0.332973 0.768968 0.499685
945 1 0.499459 0.865089 0.48297
369 2 0.667027 0.864789 0.469439
822 1 0.667027 0.768968 0.499685
943 1 0.50054 0.865089 0.48297
378 2 1 0.864789 0.469439
831 1 1 0.768968 0.499685
965 1 0.833513 0.865089 0.48297
255 2 0.166486 0.000300068 0.529553
282 2 0.0835031 0.144031 0.529553
309 2 0.24947 0.144031 0.529553
990 1 0 0 0.516023
264 2 0.499459 0.000300068 0.529553
291 2 0.416476 0.144031 0.529553
1012 1 0.332973 0 0.516023
300 2 0.749449 0.144031 0.529553
318 2 0.582443 0.144031 0.529553
1024 1 0.665946 0 0.516023
273 2 0.832432 0.000300068 0.529553
327 2 0.915416 0.144031 0.529553
992 1 0.998919 0 0.516023
258 2 0 0.288663 0.529553
294 2 0.24999 0.432394 0.529553
312 2 0.0829833 0.432394 0.529553
1017 1 0.166486 0.288363 0.516023
267 2 0.332973 0.288663 0.529553
321 2 0.415956 0.432394 0.529553
1029 1 0.499459 0.288363 0.516023
276 2 0.665946 0.288663 0.529553
303 2 0.582962 0.432394 0.529553
330 2 0.748929 0.432394 0.529553
285 2 0.917017 0.432394 0.529553
1000 1 0.833514 0.288363 0.516023
1001 1 0.832432 0.288363 0.516023
270 2 0.166486 0.577026 0.529553
297 2 0.083503 0.720757 0.529553
324 2 0.24947 0.720757 0.529553
279 2 0.499459 0.577026 0.529553
306 2 0.416476 0.720757 0.529553
1032 1 0.332973 0.576726 0.516023
333 2 0.582443 0.720757 0.529553
1006 1 0.667027 0.576726 0.516023
1007 1 0.665946 0.576726 0.516023
261 2 0.833513 0.577026 0.529553
288 2 0.75053 0.720757 0.529553
315 2 0.916497 0.720757 0.529553
1020 1 1 0.576726 0.516023
1025 1 0.166486 0.865089 0.516023
993 1 0.499459 0.865089 0.516023
991 1 0.50054 0.865089 0.516023
1013 1 0.833513 0.865089 0.516023
417 2 0 0.192242 0.554996
525 2 0.0835031 0.240453 0.580438
552 2 0 0.0958209 0.580438
588 2 0.24947 0.240453 0.580438
894 1 0 0 0.550299
1110 1 0.166486 0.096121 0.559692
426 2 0.332973 0.192242 0.554996
534 2 0.416476 0.240453 0.580438
561 2 0.332973 0.0958209 0.580438
916 1 0.332973 0 0.550299
1119 1 0.499459 0.096121 0.559692
435 2 0.665946 0.192242 0.554996
543 2 0.749449 0.240453 0.580438
570 2 0.665946 0.0958209 0.580438
597 2 0.582443 0.240453 0.580438
928 1 0.665946 0 0.550299
579 2 0.916497 0.240453 0.580438
896 1 0.998919 0 0.550299
1128 1 0.832432 0.096121 0.559692
429 2 0.166486 0.480605 0.554996
564 2 0.166486 0.384184 0.580438
921 1 0.166486 0.288363 0.550299
438 2 0.499459 0.480605 0.554996
573 2 0.499459 0.384184 0.580438
933 1 0.499459 0.288363 0.550299
1122 1 0.332973 0.384484 0.559692
1131 1 0.665946 0.384484 0.559692
420 2 0.833513 0.480605 0.554996
555 2 0.833513 0.384184 0.580438
904 1 0.833514 0.288363 0.550299
905 1 0.832432 0.288363 0.550299
1113 1 1 0.384484 0.559692
537 2 0.24999 0.528816 0.580438
591 2 0.0829833 0.528816 0.580438
1125 1 0.166486 0.672847 0.559692
576 2 0.332973 0.672547 0.580438
600 2 0.415956 0.528816 0.580438
936 1 0.332973 0.576726 0.550299
1134 1 0.499459 0.672847 0.559692
546 2 0.582962 0.528816 0.580438
558 2 0.667027 0.672547 0.580438
910 1 0.667027 0.576726 0.550299
911 1 0.665946 0.576726 0.550299
528 2 0.917017 0.528816 0.580438
567 2 1 0.672547 0.580438
582 2 0.75001 0.528816 0.580438
924 1 1 0.576726 0.550299
1116 1 0.833513 0.672847 0.559692
540 2 0.083503 0.817179 0.580438
603 2 0.24947 0.817179 0.580438
929 1 0.166486 0.865089 0.550299
441 2 0.332973 0.768968 0.554996
549 2 0.416476 0.817179 0.580438
897 1 0.499459 0.865089 0.550299
423 2 0.667027 0.768968 0.554996
585 2 0.583524 0.817179 0.580438
895 1 0.50054 0.865089 0.550299
432 2 1 0.768968 0.554996
531 2 0.75053 0.817179 0.580438
594 2 0.916497 0.817179 0.580438
917 1 0.833513 0.865089 0.550299
1035 1 0 0.192242 0.610307
1065 1 0 0 0.610684
1164 1 0.166486 0.096121 0.593969
1191 1 0.166486 0.096121 0.627022
1044 1 0.332973 0.192242 0.610307
1087 1 0.332973 0 0.610684
1173 1 0.499459 0.096121 0.593969
1200 1 0.499459 0.096121 0.627022
1053 1 0.665946 0.192242 0.610307
1099 1 0.665946 0 0.610684
1067 1 0.998919 0 0.610684
1182 1 0.832432 0.096121 0.593969
1209 1 0.832432 0.096121 0.627022
1047 1 0.166486 0.480605 0.610307
1092 1 0.166486 0.288363 0.610684
1056 1 0.499459 0.480605 0.610307
1104 1 0.499459 0.288363 0.610684
1176 1 0.332973 0.384484 0.593969
1203 1 0.332973 0.384484 0.627022
1185 1 0.665946 0.384484 0.593969
1212 1 0.665946 0.384484 0.627022
1038 1 0.833513 0.480605 0.610307
1075 1 0.833514 0.288363 0.610684
1076 1 0.832432 0.288363 0.610684
1167 1 1 0.384484 0.593969
1194 1 1 0.384484 0.627022
1179 1 0.166486 0.672847 0.593969
1206 1 0.166486 0.672847 0.627022
1107 1 0.332973 0.576726 0.610684
1188 1 0.499459 0.672847 0.593969
1215 1 0.499459 0.672847 0.627022
1081 1 0.667027 0.576726 0.610684
1082 1 0.665946 0.576726 0.610684
1095 1 1 0.576726 0.610684
1170 1 0.833513 0.672847 0.593969
1197 1 0.833513 0.672847 0.627022
1100 1 0.166486 0.865089 0.610684
1059 1 0.332973 0.768968 0.610307
1068 1 0.499459 0.865089 0.610684
1041 1 0.667027 0.768968 0.610307
1066 1 0.50054 0.865089 0.610684
1050 1 1 0.768968 0.610307
1088 1 0.833513 0.865089 0.610684
13 2 0 0 0.665995
444 2 0 0.0964211 0.640552
480 2 0.24999 0.240152 0.640552
498 2 0.0829833 0.240152 0.640552
682 1 0 0.192242 0.670691
1137 1 0.166486 0.096121 0.661298
39 2 0.332973 0 0.665995
453 2 0.332973 0.0964211 0.640552
507 2 0.415956 0.240152 0.640552
691 1 0.332973 0.192242 0.670691
1146 1 0.499459 0.096121 0.661298
55 2 0.665946 0 0.665995
462 2 0.665946 0.0964211 0.640552
489 2 0.582962 0.240152 0.640552
516 2 0.748929 0.240152 0.640552
700 1 0.665946 0.192242 0.670691
15 2 0.998919 0 0.665995
471 2 0.917017 0.240152 0.640552
1155 1 0.832432 0.096121 0.661298
44 2 0.166486 0.288363 0.665995
456 2 0.166486 0.384784 0.640552
694 1 0.166486 0.480605 0.670691
60 2 0.499459 0.288363 0.665995
465 2 0.499459 0.384784 0.640552
703 1 0.499459 0.480605 0.670691
1149 1 0.332973 0.384484 0.661298
1158 1 0.665946 0.384484 0.661298
23 2 0.833514 0.288363 0.665995
24 2 0.832432 0.288363 0.665995
447 2 0.833513 0.384784 0.640552
685 1 0.833513 0.480605 0.670691
1140 1 1 0.384484 0.661298
483 2 0.083503 0.528515 0.640552
510 2 0.24947 0.528515 0.640552
1152 1 0.166486 0.672847 0.661298
64 2 0.332973 0.576726 0.665995
468 2 0.332973 0.673147 0.640552
492 2 0.416476 0.528515 0.640552
1161 1 0.499459 0.672847 0.661298
31 2 0.667027 0.576726 0.665995
32 2 0.665946 0.576726 0.665995
450 2 0.667027 0.673147 0.640552
519 2 0.582443 0.528515 0.640552
48 2 1 0.576726 0.665995
459 2 1 0.673147 0.640552
474 2 0.75053 0.528515 0.640552
501 2 0.916497 0.528515 0.640552
1143 1 0.833513 0.672847 0.661298
56 2 0.166486 0.865089 0.665995
495 2 0.24999 0.816879 0.640552
513 2 0.0829832 0.816879 0.640552
16 2 0.499459 0.865089 0.665995
522 2 0.415956 0.816879 0.640552
706 1 0.332973 0.768968 0.670691
14 2 0.50054 0.865089 0.665995
477 2 0.584044 0.816879 0.640552
688 1 0.667027 0.768968 0.670691
40 2 0.833513 0.865089 0.665995
486 2 0.917017 0.816879 0.640552
504 2 0.75001 0.816879 0.640552
697 1 1 0.768968 0.670691
148 2 0.0835031 0.0482105 0.691438
175 2 0.166486 0.191942 0.691438
202 2 0.24947 0.0482105 0.691438
613 1 0 0 0.721306
655 1 0.166486 0.096121 0.721683
736 1 0 0.192242 0.704968
157 2 0.416476 0.0482105 0.691438
184 2 0.499459 0.191942 0.691438
633 1 0.332973 0 0.721306
664 1 0.499459 0.096121 0.721683
745 1 0.332973 0.192242 0.704968
166 2 0.749449 0.0482105 0.691438
211 2 0.582443 0.0482105 0.691438
645 1 0.665946 0 0.721306
754 1 0.665946 0.192242 0.704968
193 2 0.832432 0.191942 0.691438
220 2 0.915416 0.0482105 0.691438
615 1 0.998919 0 0.721306
673 1 0.832432 0.096121 0.721683
160 2 0.24999 0.336574 0.691438
205 2 0.0829833 0.336574 0.691438
637 1 0.166486 0.288363 0.721306
748 1 0.166486 0.480605 0.704968
187 2 0.332973 0.480305 0.691438
214 2 0.415956 0.336574 0.691438
649 1 0.499459 0.288363 0.721306
667 1 0.332973 0.384484 0.721683
757 1 0.499459 0.480605 0.704968
169 2 0.582962 0.336574 0.691438
196 2 0.665946 0.480305 0.691438
223 2 0.748929 0.336574 0.691438
676 1 0.665946 0.384484 0.721683
151 2 0.917017 0.336574 0.691438
178 2 1 0.480305 0.691438
621 1 0.833514 0.288363 0.721306
622 1 0.832432 0.288363 0.721306
658 1 1 0.384484 0.721683
739 1 0.833513 0.480605 0.704968
163 2 0.083503 0.624937 0.691438
217 2 0.24947 0.624937 0.691438
670 1 0.166486 0.672847 0.721683
172 2 0.416476 0.624937 0.691438
652 1 0.332973 0.576726 0.721306
679 1 0.499459 0.672847 0.721683
226 2 0.582443 0.624937 0.691438
627 1 0.667027 0.576726 0.721306
628 1 0.665946 0.576726 0.721306
154 2 0.75053 0.624937 0.691438
208 2 0.916497 0.624937 0.691438
640 1 1 0.576726 0.721306
661 1 0.833513 0.672847 0.721683
190 2 0.166486 0.768668 0.691438
646 1 0.166486 0.865089 0.721306
199 2 0.499459 0.768668 0.691438
616 1 0.499459 0.865089 0.721306
760 1 0.332973 0.768968 0.704968
614 1 0.50054 0.865089 0.721306
742 1 0.667027 0.768968 0.704968
181 2 0.833513 0.768668 0.691438
634 1 0.833513 0.865089 0.721306
751 1 1 0.768968 0.704968
67 2 0.166486 0.192542 0.751551
94 2 0.24999 0.0479105 0.751551
121 2 0.0829834 0.0479105 0.751551
709 1 0 0.192242 0.772298
763 1 0 0.192242 0.738021
76 2 0.499459 0.192542 0.751551
130 2 0.415956 0.0479105 0.751551
718 1 0.332973 0.192242 0.772298
772 1 0.332973 0.192242 0.738021
103 2 0.582963 0.0479105 0.751551
139 2 0.748929 0.0479105 0.751551
727 1 0.665946 0.192242 0.772298
781 1 0.665946 0.192242 0.738021
85 2 0.832432 0.192542 0.751551
112 2 0.915936 0.0479105 0.751551
97 2 0.083503 0.336273 0.751551
133 2 0.24947 0.336273 0.751551
721 1 0.166486 0.480605 0.772298
775 1 0.166486 0.480605 0.738021
79 2 0.332973 0.480905 0.751551
106 2 0.416476 0.336273 0.751551
730 1 0.499459 0.480605 0.772298
784 1 0.499459 0.480605 0.738021
88 2 0.665946 0.480905 0.751551
115 2 0.749449 0.336273 0.751551
142 2 0.582443 0.336273 0.751551
70 2 1 0.480905 0.751551
124 2 0.916497 0.336273 0.751551
712 1 0.833513 0.480605 0.772298
766 1 0.833513 0.480605 0.738021
109 2 0.24999 0.624636 0.751551
136 2 0.0829833 0.624636 0.751551
145 2 0.415956 0.624636 0.751551
118 2 0.582962 0.624636 0.751551
100 2 0.917017 0.624636 0.751551
127 2 0.75001 0.624636 0.751551
82 2 0.166486 0.769268 0.751551
91 2 0.499459 0.769268 0.751551
733 1 0.332973 0.768968 0.772298
787 1 0.332973 0.768968 0.738021
715 1 0.667027 0.768968 0.772298
769 1 0.667027 0.768968 0.738021
73 2 0.833513 0.769268 0.751551
724 1 1 0.768968 0.772298
778 1 1 0.768968 0.738021
229 2 0.166486 0.096121 0.776994
346 2 0.24999 0.144332 0.802437
391 2 0.0829833 0.144332 0.802437
850 1 0 0 0.781691
946 1 0 0 0.815967
238 2 0.499459 0.096121 0.776994
400 2 0.415956 0.144332 0.802437