ITEM: TIMESTEP
0
ITEM: NUMBER OF ATOMS
1216
ITEM: BOX BOUNDS pp pp pp
0.0000000000000000e+00 1.4800000000000001e+01
0.0000000000000000e+00 1.4800000000000001e+01
0.0000000000000000e+00 7.9400000000000006e+01
ITEM: ATOMS id type xs ys zs
146 2 0.0170404 0.108583 0.0318637
173 2 0.202459 0.173156 0.0409297
680 1 0.0941369 0.177294 0.000815486
689 1 0.234788 0.219157 0.0106231
51 2 0.172623 0.0314944 0.0131314
155 2 0.343775 0.0322903 0.0450255
57 2 0.386274 0.210866 0.025062
164 2 0.675584 0.100055 0.0245301
698 1 0.521523 0.140369 0.015472
191 2 0.83164 0.198637 0.0394019
218 2 0.853255 0.000728943 0.0312041
17 2 0.937913 0.231435 0.00452204
41 2 0.099946 0.306434 0.0225076
746 1 0.153818 0.462051 0.0197891
45 2 0.000278182 0.44537 0.00218272
158 2 0.277102 0.365221 0.0392461
701 1 0.436714 0.389584 0.0273286
1150 1 0.318789 0.34974 0.00797253
167 2 0.58004 0.286552 0.0235045
27 2 0.631177 0.482026 0.0197135
19 2 0.751623 0.326387 0.00845619
149 2 0.913101 0.362616 0.0326123
683 1 0.814404 0.48198 0.0195552
176 2 0.00595989 0.535255 0.0370991
161 2 0.108499 0.626636 0.00969094
215 2 0.204478 0.568796 0.0434192
755 1 0.47601 0.542492 0.0230816
61 2 0.310841 0.518999 0.0108533
170 2 0.373834 0.683041 0.0303632
704 1 0.251207 0.71665 0.0103398
25 2 0.70516 0.703607 0.00448708
224 2 0.56996 0.69748 0.031058
152 2 0.752363 0.61 0.0378917
206 2 0.892337 0.63193 0.0101265
749 1 0.9983 0.710538 0.0341904
1 2 0.0199046 0.891225 0.0285269
188 2 0.164326 0.757325 0.0386799
695 1 0.00188562 0.75969 0.00841125
7 2 0.307044 0.870493 0.0223821
3 2 0.498562 0.984947 0.0233192
49 2 0.676638 0.876815 0.0248102
4 2 0.500497 0.817011 0.00279136
35 2 0.86721 0.849552 0.0048913
179 2 0.847477 0.780188 0.0376649
1156 1 0.780448 0.992164 0.00463118
734 1 0.0941982 0.0962564 0.0627257
65 2 0.105281 0.200094 0.0882711
92 2 0.208422 0.0137712 0.0839293
743 1 0.370139 0.21947 0.0565066
653 1 0.254695 0.143718 0.068201
128 2 0.400772 0.0850437 0.0799988
662 1 0.491423 0.225433 0.0789655
182 2 0.521498 0.132396 0.0502482
752 1 0.667107 0.214919 0.049166
101 2 0.623028 0.0958749 0.0831235
671 1 0.743814 0.077428 0.0533841
761 1 0.920785 0.201259 0.0864089
110 2 0.919228 0.0732173 0.0662613
618 1 0.775537 0.183202 0.074179
203 2 0.0233942 0.256517 0.0580401
635 1 0.198035 0.294866 0.0656677
773 1 0.113116 0.406518 0.0492387
665 1 0.240072 0.457121 0.0661618
104 2 0.361021 0.348215 0.0777544
782 1 0.481871 0.467926 0.0777802
212 2 0.512735 0.337952 0.0547024
221 2 0.72292 0.375638 0.047883
647 1 0.639235 0.261816 0.075087
674 1 0.625627 0.41694 0.0729915
737 1 0.853528 0.492834 0.0487383
113 2 0.760233 0.359037 0.0876973
617 1 0.860671 0.305569 0.0648583
656 1 0.965094 0.417721 0.0613569
107 2 0.194171 0.692419 0.0770071
134 2 0.0799523 0.518604 0.0735106
668 1 0.0662371 0.656998 0.0574852
185 2 0.390667 0.50758 0.0510093
77 2 0.339159 0.549217 0.0882087
143 2 0.396809 0.746396 0.0815932
650 1 0.326461 0.65218 0.0597801
677 1 0.484538 0.676247 0.0580583
194 2 0.578 0.536174 0.0533055
764 1 0.731469 0.521116 0.0653545
623 1 0.629795 0.661895 0.0713802
624 1 0.501489 0.611011 0.0857683
68 2 0.871893 0.535806 0.0809585
98 2 0.985827 0.700262 0.0854433
638 1 0.910852 0.64044 0.0553273
659 1 0.775749 0.671557 0.0672693
200 2 0.161474 0.963984 0.0477438
605 1 0.0465452 0.954274 0.072769
629 1 0.18572 0.856559 0.069252
642 1 0.0414138 0.810853 0.0602306
197 2 0.460799 0.847068 0.0481503
758 1 0.302046 0.802363 0.0531158
89 2 0.497367 0.918356 0.0853383
608 1 0.340918 0.919781 0.0705301
209 2 0.617304 0.959017 0.0568475
740 1 0.687381 0.762276 0.0493626
606 1 0.579055 0.802965 0.0687411
767 1 0.732951 0.827137 0.074258
641 1 0.770482 0.991403 0.0751188
607 1 0.925835 0.91353 0.0551808
71 2 0.893464 0.895308 0.0890939
630 1 0.769309 0.907489 0.0515183
776 1 0.88091 0.781823 0.0674293
119 2 0.025308 0.0358148 0.100907
227 2 0.17608 0.149562 0.123251
74 2 0.403229 0.229639 0.107018
770 1 0.2637 0.223942 0.0915538
236 2 0.48476 0.0384018 0.115057
866 1 0.308187 0.0946031 0.107841
386 2 0.312311 0.00488521 0.135493
779 1 0.711801 0.216857 0.102659
725 1 0.562639 0.193258 0.106954
878 1 0.665782 0.0756793 0.113846
83 2 0.819136 0.0808414 0.100185
122 2 0.966947 0.190264 0.117373
245 2 0.78557 0.139963 0.135268
844 1 0.913195 0.0297624 0.126709
131 2 0.186925 0.389654 0.0932598
872 1 0.0927896 0.299996 0.114702
401 2 0.159169 0.43518 0.128756
716 1 0.253291 0.295447 0.11729
239 2 0.372527 0.420678 0.117074
884 1 0.497513 0.306552 0.128705
140 2 0.557305 0.354777 0.0987462
861 1 0.650666 0.499733 0.1233
380 2 0.678944 0.33291 0.127756
95 2 0.96871 0.358414 0.0915618
248 2 0.816769 0.469654 0.11594
854 1 0.964309 0.375336 0.124577
855 1 0.835553 0.291336 0.114277
719 1 0.17817 0.557907 0.0982698
230 2 0.0228247 0.520381 0.108959
242 2 0.127214 0.691977 0.113602
251 2 0.449416 0.627562 0.12044
887 1 0.26896 0.559136 0.120588
731 1 0.29638 0.693761 0.106435
86 2 0.666776 0.547023 0.0936888
116 2 0.576639 0.742642 0.0989286
728 1 0.516821 0.502358 0.106869
860 1 0.647742 0.650213 0.119384
125 2 0.780942 0.721044 0.0965278
710 1 0.894041 0.622476 0.108582
875 1 0.986555 0.650919 0.129803
365 2 0.795983 0.650425 0.133153
80 2 0.0966965 0.852201 0.096736
842 1 0.186123 0.97846 0.114787
879 1 0.225463 0.830387 0.119872
722 1 0.0469974 0.930036 0.124519
785 1 0.268633 0.833066 0.0928031
845 1 0.344177 0.956096 0.100631
413 2 0.402468 0.828642 0.117193
137 2 0.69236 0.91956 0.0987936
713 1 0.715266 0.800375 0.121511
843 1 0.562343 0.884182 0.115231
233 2 0.935131 0.801082 0.121246
867 1 0.815301 0.9219 0.120778
707 1 0.0464147 0.0807354 0.137681
389 2 0.176768 0.119889 0.159713
940 1 0.070486 0.00635805 0.172894
344 2 0.353695 0.0606021 0.173134
398 2 0.385865 0.185631 0.141954
797 1 0.467589 0.0508765 0.148072
824 1 0.378296 0.226452 0.173696
353 2 0.589378 0.16152 0.137302
974 1 0.679753 0.0739311 0.161348
317 2 0.540606 0.14933 0.171698
335 2 0.955634 0.125696 0.162221
806 1 0.803619 0.117679 0.17446
950 1 0.898597 0.24814 0.141774
963 1 0.817757 0.00480031 0.151497
347 2 0.122229 0.436804 0.167316
968 1 0.152737 0.272188 0.174307
362 2 0.05281 0.28186 0.147423
356 2 0.320018 0.499443 0.149572
371 2 0.251701 0.303167 0.148718
800 1 0.2716 0.493813 0.179289
980 1 0.409599 0.348351 0.155177
1016 1 0.289784 0.348861 0.177829
320 2 0.443435 0.460676 0.180214
407 2 0.712269 0.262257 0.16346
833 1 0.55704 0.303283 0.155369
410 2 0.527076 0.461121 0.142892
809 1 0.621827 0.394363 0.175429
338 2 0.728681 0.483009 0.153603
815 1 0.868965 0.270674 0.168274
791 1 0.942852 0.407973 0.167138
951 1 0.832221 0.371592 0.14371
374 2 0.119955 0.59684 0.145983
803 1 0.110155 0.697754 0.172359
983 1 0.238204 0.621794 0.166645
971 1 0.0164103 0.5651 0.17055
359 2 0.288011 0.695996 0.139415
383 2 0.461676 0.635606 0.158408
836 1 0.585471 0.539777 0.17132
812 1 0.61216 0.697374 0.172608
957 1 0.626981 0.610736 0.14643
392 2 0.941512 0.508303 0.144007
818 1 0.863081 0.546044 0.171526
956 1 0.757636 0.673605 0.162004
350 2 0.947729 0.711916 0.158702
938 1 0.147325 0.971071 0.145296
404 2 0.112787 0.804441 0.145418
1023 1 0.221171 0.942985 0.170448
962 1 0.38803 0.920208 0.160175
975 1 0.270492 0.860001 0.146416
839 1 0.415995 0.785577 0.147364
941 1 0.496164 0.913545 0.140167
323 2 0.262501 0.784765 0.174163
305 2 0.485515 0.814295 0.175919
341 2 0.583855 0.768371 0.140405
368 2 0.659234 0.964752 0.137316
821 1 0.643144 0.859683 0.164795
939 1 0.552901 0.975872 0.166343
395 2 0.788191 0.831007 0.15036
377 2 0.965035 0.928237 0.151963
830 1 0.888699 0.844253 0.178123
988 1 0.918615 0.992885 0.181762
1011 1 0.761544 0.956194 0.177157
788 1 0.0738997 0.145521 0.18707
281 2 0.0455186 0.0147364 0.208174
416 2 0.0774821 0.212952 0.217089
986 1 0.190591 0.0427172 0.190854
1109 1 0.207929 0.0942954 0.219499
308 2 0.251286 0.191709 0.194348
290 2 0.46241 0.157501 0.20286
1010 1 0.341122 0.0436501 0.204989
920 1 0.256197 0.24968 0.223407
299 2 0.679278 0.0814741 0.197155
326 2 0.899688 0.130302 0.200717
903 1 0.760044 0.184456 0.218425
999 1 0.794818 0.245922 0.193339
311 2 0.175776 0.384144 0.202823
1112 1 0.0505586 0.381373 0.223033
266 2 0.367132 0.33897 0.205241
437 2 0.473175 0.46004 0.22364
932 1 0.481036 0.281616 0.222915
1028 1 0.494255 0.305305 0.18359
275 2 0.633287 0.279432 0.199745
302 2 0.635448 0.481982 0.203058
257 2 0.999997 0.292011 0.185705
329 2 0.80142 0.406909 0.186436
284 2 0.990227 0.481957 0.197668
419 2 0.77277 0.359379 0.223935
998 1 0.917325 0.338953 0.210078
827 1 0.143132 0.555689 0.191379
428 2 0.126238 0.543854 0.226807
269 2 0.156987 0.70909 0.20401
1019 1 0.00698543 0.656283 0.192626
293 2 0.304901 0.547097 0.207125
278 2 0.499033 0.624381 0.196991
935 1 0.41162 0.623351 0.226859
1031 1 0.356749 0.646051 0.182243
1004 1 0.723707 0.574912 0.18219
1005 1 0.657403 0.659037 0.203282
794 1 0.861209 0.681154 0.183567
260 2 0.824748 0.578881 0.207496
923 1 0.973187 0.613841 0.219639
254 2 0.226155 0.910264 0.207698
892 1 0.0704105 0.853025 0.215251
296 2 0.0647649 0.852087 0.182713
440 2 0.352101 0.753381 0.206915
893 1 0.408072 0.903474 0.21605
989 1 0.359635 0.90703 0.188424
987 1 0.488553 0.993451 0.192703
263 2 0.531828 0.99944 0.22368
1022 1 0.628191 0.925239 0.191573
332 2 0.55631 0.807561 0.208724
287 2 0.734097 0.788049 0.186962
422 2 0.741541 0.756202 0.222502
891 1 0.672417 0.908001 0.220321
272 2 0.826847 0.94202 0.207371
314 2 0.923057 0.774385 0.207197
524 2 0.182348 0.166817 0.248024
1034 1 0.106823 0.0575332 0.2662
1073 1 0.0238259 0.21103 0.271847
425 2 0.385549 0.150321 0.237218
587 2 0.318928 0.248269 0.27013
533 2 0.470275 0.116926 0.272145
560 2 0.284774 0.0202001 0.260943
434 2 0.602891 0.171509 0.232781
926 1 0.713112 0.0401294 0.229545
569 2 0.632543 0.0223124 0.25851
1127 1 0.867085 0.054422 0.229269
902 1 0.907228 0.224257 0.228293
542 2 0.786424 0.157458 0.249506
578 2 0.989459 0.112267 0.247079
1181 1 0.867211 0.0190175 0.262195
563 2 0.189199 0.367929 0.242022
1166 1 0.0420075 0.284194 0.246079
590 2 0.0440587 0.405284 0.271243
1091 1 0.156442 0.286956 0.269756
1121 1 0.356804 0.340255 0.239331
1175 1 0.396056 0.399715 0.266491
1130 1 0.614187 0.339383 0.229348
909 1 0.628347 0.480239 0.233711
572 2 0.507652 0.306868 0.253569
1184 1 0.702753 0.315362 0.253154
581 2 0.74383 0.481238 0.255147
554 2 0.887192 0.316636 0.255567
527 2 0.931475 0.468538 0.234888
1037 1 0.895493 0.489683 0.26667
431 2 0.0479925 0.72857 0.236082
1178 1 0.158598 0.512968 0.257531
566 2 0.0160864 0.598474 0.259878
602 2 0.213016 0.682102 0.25888
1124 1 0.261679 0.666722 0.229143
536 2 0.318206 0.515814 0.245266
575 2 0.419735 0.684685 0.257899
908 1 0.730946 0.589438 0.230917
599 2 0.526369 0.504662 0.258953
1187 1 0.577679 0.676835 0.268127
545 2 0.574804 0.642288 0.233309
557 2 0.733679 0.689847 0.256625
1115 1 0.870406 0.615079 0.243821
890 1 0.142701 0.98561 0.236267
927 1 0.189397 0.802092 0.231773
539 2 0.137198 0.871826 0.259382
914 1 0.316184 0.998073 0.2315
1118 1 0.451936 0.978264 0.251624
1133 1 0.452378 0.768654 0.231165
548 2 0.3266 0.847141 0.244142
1064 1 0.432634 0.840091 0.267834
584 2 0.574248 0.833858 0.247203
915 1 0.882271 0.764106 0.238044
551 2 0.967435 0.918931 0.23677
530 2 0.778272 0.896689 0.247816
593 2 0.944652 0.790892 0.265854
1061 1 0.999183 0.951338 0.267581
479 2 0.15782 0.159187 0.29214
1190 1 0.105728 0.016011 0.308836
452 2 0.284281 0.00336039 0.310928
506 2 0.330864 0.218424 0.310051
1043 1 0.317397 0.102075 0.287096
1199 1 0.440542 0.0633893 0.304081
596 2 0.640047 0.209078 0.274574
461 2 0.626841 0.013808 0.297908
488 2 0.543297 0.192095 0.307078
443 2 0.969349 0.0714981 0.288864
515 2 0.756793 0.187571 0.305039
1052 1 0.757392 0.0908152 0.27792
1208 1 0.806185 0.013663 0.300574
1074 1 0.866861 0.195729 0.277503
1154 1 0.886796 0.100891 0.317672
455 2 0.18207 0.355849 0.298742
500 2 0.0372205 0.459229 0.314106
1046 1 0.251139 0.427661 0.27326
464 2 0.483991 0.389435 0.313787
1103 1 0.489428 0.297059 0.285032
1202 1 0.355689 0.356323 0.29323
1055 1 0.615976 0.391779 0.275006
1211 1 0.635406 0.323533 0.300453
518 2 0.66985 0.482104 0.308894
470 2 0.96809 0.274573 0.299487
446 2 0.78081 0.353055 0.284736
1193 1 0.915145 0.443791 0.293518
482 2 0.152974 0.55727 0.287984
1205 1 0.199262 0.705633 0.299088
458 2 0.0479329 0.685135 0.313324
1098 1 0.0819361 0.717273 0.279928
509 2 0.330597 0.511046 0.300877
467 2 0.365688 0.702606 0.312795
1106 1 0.383406 0.542958 0.273299
1214 1 0.471306 0.738654 0.287701
1058 1 0.317621 0.66336 0.283529
491 2 0.508592 0.574831 0.294789
449 2 0.693907 0.67768 0.294161
1080 1 0.647264 0.545158 0.277818
1160 1 0.547108 0.704691 0.313616
1169 1 0.860798 0.641949 0.275576
1079 1 0.786167 0.524228 0.286758
473 2 0.857819 0.594522 0.312389
1094 1 0.982801 0.583949 0.290608
1049 1 0.92406 0.742923 0.295384
1163 1 0.185566 0.982771 0.285111
512 2 0.0697532 0.865287 0.295017
1085 1 0.400034 0.970851 0.28153
494 2 0.283185 0.836867 0.284442
521 2 0.452335 0.881745 0.305106
1172 1 0.546185 0.920874 0.2766
1097 1 0.749076 0.936794 0.277267
1040 1 0.657524 0.817434 0.272758
1062 1 0.602933 0.82392 0.297999
1063 1 0.899966 0.907133 0.288268
503 2 0.771002 0.848698 0.307602
1086 1 0.799302 0.787535 0.279549
497 2 0.0375103 0.151528 0.32394
174 2 0.137246 0.144 0.357754
1136 1 0.202147 0.13193 0.325962
37 2 0.329543 0.0902898 0.345701
690 1 0.443932 0.169714 0.330224
183 2 0.533447 0.15404 0.358341
53 2 0.746171 0.0175557 0.330876
699 1 0.654747 0.163657 0.331323
10 2 0.520021 0.0257809 0.331203
753 1 0.70934 0.119261 0.357196
681 1 0.975984 0.205982 0.35315
219 2 0.943021 0.0382207 0.350318
22 2 0.829567 0.207054 0.33838
43 2 0.170568 0.300307 0.332994
177 2 0.0768111 0.441637 0.352081
693 1 0.25592 0.444997 0.34776
59 2 0.376421 0.300199 0.3449
1148 1 0.305604 0.390844 0.321844
1145 1 0.551053 0.276623 0.33567
168 2 0.547107 0.423492 0.348639
222 2 0.685399 0.294522 0.359173
1157 1 0.690589 0.328026 0.327424
30 2 0.734179 0.495194 0.344171
21 2 0.845437 0.386124 0.320049
150 2 0.882831 0.368314 0.357748
1139 1 0.991878 0.31623 0.332824
1151 1 0.136871 0.695123 0.342555
47 2 0.2017 0.561005 0.325756
696 1 0.0407682 0.57826 0.335632
63 2 0.391906 0.542441 0.338897
171 2 0.482867 0.728377 0.343119
705 1 0.30458 0.697649 0.342741
702 1 0.554394 0.561107 0.32839
29 2 0.691693 0.670247 0.330915
684 1 0.907155 0.512652 0.33947
207 2 0.982132 0.631515 0.361269
1142 1 0.858431 0.665813 0.340815
9 2 0.146942 0.977136 0.339078
11 2 0.0191558 0.814985 0.343538
54 2 0.203778 0.81546 0.321823
189 2 0.2275 0.813267 0.360329
12 2 0.369878 0.896806 0.338398
476 2 0.609651 0.858445 0.32827
210 2 0.619606 0.957005 0.36098
687 1 0.641355 0.768898 0.354631
1196 1 0.901556 0.769357 0.322215
485 2 0.946436 0.941837 0.319326
38 2 0.806139 0.836049 0.345486
201 2 0.246863 0.000598681 0.379364
609 1 0.0858148 0.0530998 0.400279
654 1 0.159974 0.169369 0.388603
631 1 0.364506 0.103222 0.390449
744 1 0.292505 0.178729 0.369839
771 1 0.293107 0.242298 0.397263
663 1 0.51134 0.112412 0.388827
643 1 0.664751 0.0863475 0.383922
648 1 0.601371 0.23271 0.383901
192 2 0.841444 0.178684 0.376227
735 1 0.999534 0.114257 0.379554
762 1 0.939555 0.222355 0.402609
672 1 0.791518 0.0460245 0.397382
159 2 0.229454 0.331412 0.370197
204 2 0.0372283 0.284864 0.377295
636 1 0.154886 0.317174 0.399535
747 1 0.139569 0.452967 0.384353
96 2 0.00277345 0.384804 0.408036
186 2 0.389545 0.464764 0.372795
213 2 0.428329 0.267428 0.379857
666 1 0.294003 0.408775 0.3976
195 2 0.712313 0.468404 0.380881
756 1 0.549222 0.377378 0.378407
675 1 0.628787 0.381869 0.403684
620 1 0.73465 0.298544 0.388954
619 1 0.880296 0.33931 0.387977
657 1 0.987169 0.459882 0.378595
765 1 0.863044 0.486462 0.394797
162 2 0.199998 0.592458 0.363908
639 1 0.0651542 0.591031 0.38707
750 1 0.0882784 0.746009 0.371932
108 2 0.229259 0.573727 0.398842
135 2 0.0796088 0.736505 0.403426
216 2 0.371544 0.666508 0.374949
669 1 0.253678 0.73405 0.395197
651 1 0.394133 0.542995 0.400438
225 2 0.569891 0.599194 0.364201
678 1 0.506249 0.649599 0.393246
625 1 0.662222 0.627352 0.391514
626 1 0.553412 0.50705 0.392811
153 2 0.765611 0.667994 0.367537
738 1 0.857581 0.528212 0.367534
660 1 0.758441 0.7429 0.396019
99 2 0.903177 0.642388 0.395543
147 2 0.0673846 0.944564 0.372257
644 1 0.180631 0.851213 0.387576
777 1 0.0744896 0.904486 0.403572
156 2 0.433773 0.97731 0.371384
612 1 0.487554 0.842664 0.407592
759 1 0.392753 0.817555 0.363991
786 1 0.35448 0.852911 0.390759
198 2 0.539619 0.794171 0.379532
610 1 0.561217 0.95942 0.390872
741 1 0.710167 0.838947 0.376298
768 1 0.65459 0.872009 0.405236
165 2 0.800635 0.983353 0.370041
180 2 0.91763 0.813536 0.377535
611 1 0.937602 0.977025 0.390685
632 1 0.806525 0.887732 0.396845
66 2 0.0896966 0.201713 0.420086
93 2 0.244296 0.0904121 0.413276
228 2 0.181512 0.089366 0.449743
708 1 0.0133333 0.111158 0.448418
873 1 0.191472 0.246401 0.44745
75 2 0.429261 0.193746 0.415169
237 2 0.487338 0.114458 0.446192
717 1 0.324984 0.164946 0.439148
780 1 0.58625 0.241133 0.411374
102 2 0.599729 0.0625902 0.414172
726 1 0.639158 0.182086 0.436148
880 1 0.645125 0.0337534 0.444649
84 2 0.754851 0.18704 0.41128
111 2 0.923885 0.0762869 0.415616
246 2 0.796117 0.117472 0.446908
774 1 0.168393 0.445783 0.416141
231 2 0.0838602 0.37664 0.442851
132 2 0.268759 0.317935 0.424888
105 2 0.459824 0.39082 0.409969
240 2 0.424234 0.313762 0.448326
729 1 0.493564 0.471566 0.439437
141 2 0.611112 0.357509 0.43474
114 2 0.793377 0.380988 0.414408
249 2 0.770368 0.448543 0.450988
123 2 0.920088 0.259941 0.435112
856 1 0.918884 0.424538 0.43535
857 1 0.755871 0.280995 0.439063
720 1 0.157183 0.527009 0.440641
69 2 0.0384329 0.55828 0.418773
243 2 0.204079 0.68169 0.429071
78 2 0.329317 0.511727 0.430698
144 2 0.387994 0.707725 0.414008
252 2 0.499635 0.656723 0.445409
732 1 0.341363 0.70087 0.446265
783 1 0.508343 0.571288 0.418679
87 2 0.677915 0.537407 0.418916
117 2 0.602865 0.723961 0.415373
863 1 0.680494 0.660291 0.443975
959 1 0.616255 0.528503 0.451515
711 1 0.857537 0.54198 0.42069
862 1 0.844239 0.595129 0.446645
126 2 0.804551 0.704066 0.423581
234 2 0.992435 0.695695 0.442477
876 1 0.987074 0.529677 0.44925
120 2 0.0748527 0.983419 0.429834
81 2 0.244211 0.879916 0.416083
723 1 0.104959 0.820754 0.434145
129 2 0.416157 0.986601 0.411803
868 1 0.313035 0.995407 0.437482
881 1 0.262684 0.834103 0.447533
849 1 0.394971 0.847771 0.433286
847 1 0.438874 0.966375 0.452997
90 2 0.559023 0.891697 0.435549
714 1 0.702284 0.812405 0.4377
138 2 0.758912 0.958962 0.423725
848 1 0.909649 0.992349 0.442899
72 2 0.93473 0.852495 0.415574
869 1 0.852609 0.847946 0.440767
390 2 0.107082 0.0245275 0.481441
789 1 0.00970583 0.117587 0.499204
363 2 0.0996111 0.226499 0.473644
399 2 0.463271 0.0504314 0.481542
372 2 0.316787 0.189952 0.470517
981 1 0.476965 0.224351 0.478966
885 1 0.582342 0.249621 0.458849
354 2 0.642533 0.109832 0.473527
816 1 0.884492 0.189182 0.489047
976 1 0.751427 0.0216626 0.489579
336 2 0.910718 0.0403549 0.474964
952 1 0.931124 0.203772 0.463621
348 2 0.120816 0.398219 0.49501
402 2 0.239411 0.387605 0.463485
969 1 0.239267 0.274383 0.492478
801 1 0.37696 0.355659 0.4825
834 1 0.631176 0.27183 0.487238
411 2 0.568648 0.405538 0.471627
339 2 0.742952 0.434013 0.486421
1029 1 0.505413 0.340994 0.499531
381 2 0.773315 0.270159 0.469415
393 2 0.953047 0.376394 0.469233
792 1 0.995522 0.279434 0.495948
819 1 0.950898 0.447477 0.498559
953 1 0.847612 0.328531 0.499315
375 2 0.101309 0.54775 0.470802
405 2 0.160297 0.726924 0.463269
804 1 0.168535 0.682514 0.495234
972 1 0.0437759 0.568188 0.498401
888 1 0.258696 0.579977 0.458455
357 2 0.404299 0.500462 0.465045
360 2 0.342521 0.663316 0.479964
984 1 0.263173 0.505857 0.487118
840 1 0.45441 0.730243 0.499589
384 2 0.556986 0.612974 0.480878
958 1 0.723739 0.595255 0.470244
1006 1 0.715675 0.576156 0.499775
351 2 0.98829 0.72828 0.48542
366 2 0.892822 0.563158 0.476914
396 2 0.823132 0.736648 0.461335
288 2 0.76856 0.725808 0.494938
846 1 0.151658 0.924742 0.455975
942 1 0.122465 0.851516 0.481747
1025 1 0.224729 0.932555 0.499347
414 2 0.433181 0.815388 0.465533
977 1 0.273652 0.815782 0.479454
387 2 0.296253 0.969791 0.46923
945 1 0.385231 0.910576 0.494316
342 2 0.62557 0.776773 0.466647
822 1 0.690917 0.880348 0.489176
943 1 0.578042 0.947854 0.466498
991 1 0.530988 0.871852 0.489271
369 2 0.751433 0.934942 0.461467
378 2 0.993172 0.875579 0.459359
831 1 0.982086 0.908317 0.491082
965 1 0.853567 0.855298 0.481869
282 2 0.042946 0.0563004 0.542627
309 2 0.127937 0.205862 0.513454
990 1 0.122834 0.0248337 0.513451
1012 1 0.225005 0.0897198 0.530542
345 2 0.282042 0.0913195 0.501008
825 1 0.376321 0.239507 0.505184
291 2 0.389818 0.126113 0.533096
993 1 0.45106 0.0253282 0.511529
798 1 0.602346 0.00296023 0.501508
408 2 0.744178 0.181208 0.503069
264 2 0.575875 0.0277518 0.53406
300 2 0.714628 0.179101 0.537782
318 2 0.540781 0.176209 0.509238
1024 1 0.72959 0.0344624 0.519821
807 1 0.866378 0.0639148 0.505303
327 2 0.917879 0.163965 0.525809
312 2 0.174223 0.387611 0.532144
1017 1 0.294991 0.386823 0.509056
267 2 0.442842 0.330909 0.530404
321 2 0.4283 0.496952 0.502176
921 1 0.276068 0.254146 0.530023
810 1 0.595727 0.478765 0.501675
276 2 0.652948 0.347188 0.5181
258 2 0.98315 0.344674 0.523936
330 2 0.821653 0.478212 0.518782
1001 1 0.814399 0.305705 0.526955
828 1 0.179068 0.530696 0.511992
285 2 0.0171438 0.535369 0.528354
270 2 0.189109 0.681079 0.529121
1020 1 0.0334856 0.689442 0.515545
294 2 0.316895 0.510584 0.532028
279 2 0.436725 0.668322 0.531595
1032 1 0.310774 0.621848 0.508626
837 1 0.561895 0.624026 0.512015
303 2 0.554785 0.500811 0.533195
261 2 0.710637 0.643046 0.527683
795 1 0.893366 0.621171 0.507702
924 1 0.87049 0.625952 0.537569
255 2 0.177525 0.912594 0.538038
992 1 0.0039372 0.883156 0.538576
297 2 0.0882138 0.8397 0.511562
964 1 0.329534 0.954702 0.52348
324 2 0.299097 0.792701 0.510269
306 2 0.48678 0.860753 0.519941
813 1 0.607532 0.757338 0.501894
333 2 0.692538 0.867867 0.5206
1007 1 0.591693 0.752342 0.534628
944 1 0.977666 0.979969 0.516129
273 2 0.849734 0.965468 0.538159
315 2 0.889289 0.785462 0.521033
1013 1 0.834825 0.919178 0.506474
417 2 0.0910793 0.237244 0.550293
525 2 0.14515 0.184357 0.585336
894 1 0.116543 0.0102913 0.569559
1110 1 0.195989 0.113159 0.556897
426 2 0.31754 0.223441 0.561805
561 2 0.278347 0.0497178 0.582412
916 1 0.309997 0.00459768 0.550962
1119 1 0.42889 0.0718325 0.564801
435 2 0.543383 0.186448 0.555446
570 2 0.588213 0.0362432 0.578762
928 1 0.712103 0.0363475 0.553439
543 2 0.751695 0.173489 0.574307
579 2 0.948067 0.174014 0.579287
1128 1 0.864795 0.106472 0.554484
564 2 0.195809 0.379291 0.571186
1113 1 0.0423186 0.418632 0.553217
591 2 0.0458321 0.473641 0.588596
1167 1 0.0264788 0.320914 0.574987
573 2 0.477121 0.34016 0.569767
1122 1 0.32805 0.383433 0.553005
1176 1 0.351926 0.429062 0.58392
933 1 0.60923 0.336161 0.548162
1131 1 0.674345 0.351366 0.576061
420 2 0.734914 0.468505 0.54996
911 1 0.583733 0.466511 0.56385
1000 1 0.889757 0.407642 0.546948
555 2 0.85442 0.362284 0.580038
904 1 0.913957 0.261444 0.553104
905 1 0.764843 0.306636 0.554687
429 2 0.143739 0.557261 0.555743
537 2 0.248353 0.575978 0.584685
1125 1 0.176011 0.749633 0.558389
567 2 0.0828984 0.689353 0.583021
432 2 0.0129363 0.716622 0.547533
438 2 0.416354 0.530498 0.56132
576 2 0.434741 0.694493 0.582701
936 1 0.299652 0.649514 0.556514
546 2 0.597791 0.640101 0.56144
582 2 0.721777 0.51798 0.584575
558 2 0.756985 0.718179 0.589132
910 1 0.769256 0.623304 0.560012
528 2 0.923868 0.544421 0.564212
1116 1 0.887301 0.704865 0.569284
896 1 0.0663414 0.854861 0.565538
929 1 0.228241 0.904778 0.567469
1134 1 0.494307 0.787121 0.555394
603 2 0.267328 0.780529 0.584996
441 2 0.334157 0.81096 0.547663
549 2 0.420095 0.908952 0.575892
897 1 0.453972 0.941077 0.546747
585 2 0.596827 0.822573 0.578948
895 1 0.61972 0.898591 0.551547
552 2 0.95303 0.982534 0.572903
423 2 0.750651 0.783028 0.551904
531 2 0.766542 0.930241 0.574609
917 1 0.904643 0.842989 0.559485
1065 1 0.0451014 0.0616993 0.594218
1164 1 0.153089 0.0481392 0.612293
1191 1 0.0702015 0.0670893 0.636231
480 2 0.118383 0.212213 0.623176
534 2 0.440006 0.169566 0.592758
1044 1 0.276248 0.138905 0.612445
1173 1 0.425535 0.0150753 0.600277
1200 1 0.408046 0.107376 0.624846
597 2 0.6114 0.240743 0.596301
1053 1 0.719387 0.126395 0.602609
462 2 0.580371 0.0653537 0.619372
516 2 0.716312 0.22053 0.629101
1182 1 0.838831 0.0419103 0.594317
1209 1 0.78085 0.0453776 0.622945
1076 1 0.823466 0.246507 0.603337
444 2 0.938603 0.121701 0.615861
1047 1 0.2291 0.451389 0.604417
1092 1 0.125127 0.331567 0.598983
456 2 0.124543 0.407304 0.627132
588 2 0.296658 0.290894 0.599802
1104 1 0.469172 0.340092 0.600838
1203 1 0.366886 0.41471 0.617825
507 2 0.288661 0.294679 0.635219
489 2 0.497235 0.251626 0.628446
1056 1 0.522284 0.433015 0.621156
1185 1 0.639284 0.395618 0.603701
1212 1 0.633361 0.354512 0.633828
1035 1 0.978528 0.286726 0.602798
1075 1 0.962305 0.428546 0.614621
471 2 0.916706 0.295913 0.632336
447 2 0.783906 0.416804 0.616995
1179 1 0.212785 0.685518 0.607818
483 2 0.0915997 0.585819 0.616345
1107 1 0.373862 0.547621 0.60239
1059 1 0.360845 0.699118 0.612205
510 2 0.284007 0.55853 0.629539
492 2 0.481425 0.601079 0.623033
600 2 0.521749 0.504426 0.59141
1188 1 0.587457 0.674408 0.596871
1082 1 0.637775 0.547871 0.612042
450 2 0.672622 0.700855 0.625718
1038 1 0.881753 0.506127 0.595212
1194 1 0.930942 0.579213 0.619974
1081 1 0.782856 0.591656 0.61079
1095 1 0.852027 0.724988 0.616195
1170 1 0.934607 0.644895 0.594291
540 2 0.123735 0.907556 0.59463
1100 1 0.082954 0.766029 0.612664
495 2 0.248698 0.831825 0.622761
513 2 0.0677159 0.904633 0.630825
1087 1 0.28535 0.967666 0.608121
1068 1 0.39344 0.840214 0.603175
522 2 0.428309 0.933791 0.628248
1099 1 0.690403 0.972859 0.601886
1215 1 0.510081 0.774514 0.619657
1041 1 0.653109 0.822939 0.607138
1066 1 0.538064 0.91642 0.602849
504 2 0.734959 0.891873 0.63085
594 2 0.94288 0.81184 0.592449
1067 1 0.952168 0.958144 0.607774
1050 1 0.907128 0.852589 0.62812
1088 1 0.808686 0.875085 0.604241
13 2 0.104323 0.0010817 0.664938
1137 1 0.177172 0.169868 0.654121
39 2 0.288046 0.0927459 0.674092
453 2 0.251061 0.0282114 0.638309
691 1 0.346002 0.170581 0.649206
14 2 0.486577 0.0818189 0.654699
55 2 0.691288 0.0464187 0.652207
700 1 0.611881 0.225536 0.654617
754 1 0.611164 0.122557 0.676053
498 2 0.992246 0.174138 0.654929
1155 1 0.842073 0.141828 0.641886
24 2 0.783261 0.201451 0.668366
220 2 0.905689 0.0467204 0.679665
44 2 0.109706 0.335043 0.660591
694 1 0.196584 0.474753 0.677816
1146 1 0.458934 0.271554 0.65907
60 2 0.306209 0.311331 0.672275
465 2 0.429769 0.434968 0.647309
1149 1 0.253449 0.436826 0.651643
1158 1 0.582813 0.378417 0.661248
32 2 0.666063 0.494463 0.680632
23 2 0.768571 0.38417 0.65441
1140 1 0.933861 0.336711 0.665691
501 2 0.962951 0.469227 0.645897
1206 1 0.17621 0.69444 0.637236
1152 1 0.073773 0.706843 0.664884
48 2 0.130789 0.563026 0.654959
64 2 0.3417 0.578664 0.667703
468 2 0.373103 0.733743 0.643775
172 2 0.485479 0.728945 0.675344
703 1 0.518956 0.555855 0.666006
1161 1 0.539493 0.678256 0.646995
31 2 0.680924 0.679294 0.663193
519 2 0.626592 0.51375 0.642563
685 1 0.814403 0.552352 0.671668
459 2 0.988118 0.711176 0.637542
474 2 0.816312 0.587124 0.641606
1143 1 0.841883 0.719447 0.673069
697 1 0.952545 0.605862 0.662461
56 2 0.183289 0.819921 0.657631
16 2 0.374394 0.910363 0.662661
706 1 0.310624 0.752099 0.674651
477 2 0.570695 0.851921 0.647623
211 2 0.561066 0.942677 0.679948
1197 1 0.816571 0.758636 0.645091
15 2 0.967705 0.843949 0.666328
40 2 0.762856 0.871307 0.667904
486 2 0.901247 0.990031 0.644617
175 2 0.0950577 0.166886 0.685664
202 2 0.213542 0.0640212 0.71064
613 1 0.0559497 0.0503249 0.726951
655 1 0.127117 0.203049 0.715383
157 2 0.413577 0.0101336 0.698295
184 2 0.46179 0.193172 0.686883
633 1 0.358405 0.152838 0.713889
745 1 0.253454 0.208803 0.695582
664 1 0.505359 0.12074 0.715068
166 2 0.73309 0.0131817 0.692332
645 1 0.641411 0.13293 0.702705
673 1 0.725562 0.0558991 0.724111
781 1 0.613791 0.217573 0.723553
682 1 0.929341 0.220534 0.684519
736 1 0.973168 0.138599 0.709972
193 2 0.805508 0.189879 0.707355
615 1 0.872029 0.0209774 0.710746
160 2 0.164779 0.353019 0.698612
667 1 0.249202 0.439671 0.726805
178 2 0.0135844 0.475989 0.683815
214 2 0.347753 0.316822 0.711475
169 2 0.470012 0.407582 0.684506
106 2 0.457864 0.446517 0.726663
649 1 0.513535 0.298521 0.709944
757 1 0.596082 0.42679 0.707214
223 2 0.644028 0.288311 0.68739
622 1 0.715969 0.329204 0.715698
205 2 0.989563 0.309608 0.709125
151 2 0.83121 0.381828 0.690029
621 1 0.855808 0.384106 0.721101
658 1 0.970632 0.482736 0.715496
748 1 0.145844 0.512977 0.705488
163 2 0.177693 0.650859 0.688849
640 1 0.0460549 0.613302 0.714731
187 2 0.315285 0.504471 0.700135
217 2 0.353486 0.702084 0.705417
628 1 0.478486 0.646824 0.726296
196 2 0.730101 0.505824 0.717051
226 2 0.525978 0.585998 0.699513
627 1 0.63305 0.637399 0.725063
154 2 0.725752 0.683396 0.69824
739 1 0.862798 0.545716 0.69727
208 2 0.974312 0.676037 0.689656
100 2 0.874937 0.653893 0.720356
148 2 0.0397291 0.962118 0.69992
670 1 0.206028 0.778144 0.710213
190 2 0.236645 0.90103 0.688921
646 1 0.170315 0.917934 0.718135
751 1 0.092602 0.804385 0.688578
136 2 0.0444629 0.780738 0.720595
616 1 0.478054 0.919937 0.72498
760 1 0.413294 0.847156 0.692124
787 1 0.331621 0.889387 0.715001
688 1 0.633413 0.797591 0.681844
199 2 0.550094 0.784693 0.710817
614 1 0.591652 0.983807 0.710212
742 1 0.695309 0.860239 0.705073
181 2 0.867388 0.843902 0.701015
634 1 0.785544 0.913256 0.725587
67 2 0.0486011 0.206597 0.742074
121 2 0.163678 0.04553 0.750038
709 1 0.0165979 0.106732 0.766143
718 1 0.175623 0.178242 0.772674
94 2 0.254902 0.213184 0.737826
76 2 0.466302 0.227187 0.740231
130 2 0.363934 0.0333798 0.735801
238 2 0.441608 0.0736538 0.771339
870 1 0.298024 0.121658 0.762249
103 2 0.570635 0.0429427 0.740412
727 1 0.583465 0.162804 0.762083
85 2 0.721637 0.19253 0.743865
882 1 0.601966 0.00987341 0.771679
763 1 0.885274 0.249095 0.734268