ITEM: TIMESTEP
0
ITEM: NUMBER OF ATOMS
4875
ITEM: BOX BOUNDS pp pp pp
2.4224350000000001e+00 2.2222434000000000e+01
2.4224350000000001e+00 2.2222434000000000e+01
1.3013550000000000e+01 1.1881355300000000e+02
ITEM: ATOMS id type xs ys zs
1006 1 0.00227929 0.126904 0.0245082
1010 1 0.00227929 0.126904 0.0241301
1126 1 0.00227929 0.0020202 0.0245082
1130 1 0.00227929 0.0020202 0.0241301
1251 1 0.126386 0.0020202 0.0245082
1255 1 0.126386 0.0020202 0.0241301
1351 1 0.122345 0.0020202 0.0245082
1355 1 0.122345 0.0020202 0.0241301
4031 2 0.126645 0.126645 0.0143541
4035 2 0.126645 0.126645 0.013976
1031 1 0.251269 0.126904 0.0245082
1035 1 0.251269 0.126904 0.0241301
1151 1 0.251269 0.0020202 0.0245082
1155 1 0.251269 0.0020202 0.0241301
1276 1 0.375375 0.0020202 0.0245082
1280 1 0.375375 0.0020202 0.0241301
3526 2 0.209641 0.0436481 0.00209294
3530 2 0.209641 0.0436481 0.00171481
3546 2 0.209641 0.0396077 0.00209294
3550 2 0.209641 0.0396077 0.00171481
4056 2 0.375635 0.126645 0.0143541
4060 2 0.375635 0.126645 0.013976
1056 1 0.500259 0.126904 0.0245082
1060 1 0.500259 0.126904 0.0241301
1176 1 0.500259 0.0020202 0.0245082
1180 1 0.500259 0.0020202 0.0241301
3551 2 0.458631 0.0436481 0.00209294
3555 2 0.458631 0.0436481 0.00171481
3571 2 0.458631 0.0396077 0.00209294
3575 2 0.458631 0.0396077 0.00171481
1081 1 0.749249 0.126904 0.0245082
1085 1 0.749249 0.126904 0.0241301
1201 1 0.749249 0.0020202 0.0245082
1205 1 0.749249 0.0020202 0.0241301
1301 1 0.624365 0.0020202 0.0245082
1305 1 0.624365 0.0020202 0.0241301
3576 2 0.707621 0.0436481 0.00209294
3580 2 0.707621 0.0436481 0.00171481
3596 2 0.707621 0.0396077 0.00209294
3600 2 0.707621 0.0396077 0.00171481
4081 2 0.624625 0.126645 0.0143541
4085 2 0.624625 0.126645 0.013976
1106 1 0.998239 0.126904 0.0245082
1110 1 0.998239 0.126904 0.0241301
1226 1 0.998239 0.0020202 0.0245082
1230 1 0.998239 0.0020202 0.0241301
1326 1 0.873355 0.0020202 0.0245082
1330 1 0.873355 0.0020202 0.0241301
3501 2 0.960651 0.0436481 0.00209294
3505 2 0.960651 0.0436481 0.00171481
3521 2 0.960651 0.0396077 0.00209294
3525 2 0.960651 0.0396077 0.00171481
3601 2 0.956611 0.0436481 0.00209294
3605 2 0.956611 0.0436481 0.00171481
3621 2 0.956611 0.0396077 0.00209294
3625 2 0.956611 0.0396077 0.00171481
4006 2 0.877655 0.126645 0.0143541
4010 2 0.877655 0.126645 0.013976
4106 2 0.873614 0.126645 0.0143541
4110 2 0.873614 0.126645 0.013976
1011 1 0.00227929 0.375894 0.0245082
1015 1 0.00227929 0.375894 0.0241301
1131 1 0.00227929 0.25101 0.0245082
1135 1 0.00227929 0.25101 0.0241301
1256 1 0.126386 0.25101 0.0245082
1260 1 0.126386 0.25101 0.0241301
1356 1 0.122345 0.25101 0.0245082
1360 1 0.122345 0.25101 0.0241301
3381 2 0.0436481 0.209641 0.00180971
3385 2 0.0436481 0.209641 0.00143163
3481 2 0.0396077 0.209641 0.00180971
3485 2 0.0396077 0.209641 0.00143163
4036 2 0.126645 0.375635 0.0143541
4040 2 0.126645 0.375635 0.013976
1036 1 0.251269 0.375894 0.0245082
1040 1 0.251269 0.375894 0.0241301
1156 1 0.251269 0.25101 0.0245082
1160 1 0.251269 0.25101 0.0241301
1281 1 0.375375 0.25101 0.0245082
1285 1 0.375375 0.25101 0.0241301
3406 2 0.292638 0.209641 0.00180971
3410 2 0.292638 0.209641 0.00143163
3531 2 0.209641 0.292638 0.00209294
3535 2 0.209641 0.292638 0.00171481
4061 2 0.375635 0.375635 0.0143541
4065 2 0.375635 0.375635 0.013976
1061 1 0.500259 0.375894 0.0245082
1065 1 0.500259 0.375894 0.0241301
1181 1 0.500259 0.25101 0.0245082
1185 1 0.500259 0.25101 0.0241301
3431 2 0.541628 0.209641 0.00180971
3435 2 0.541628 0.209641 0.00143163
3556 2 0.458631 0.292638 0.00209294
3560 2 0.458631 0.292638 0.00171481
1086 1 0.749249 0.375894 0.0245082
1090 1 0.749249 0.375894 0.0241301
1206 1 0.749249 0.25101 0.0245082
1210 1 0.749249 0.25101 0.0241301
1306 1 0.624365 0.25101 0.0245082
1310 1 0.624365 0.25101 0.0241301
3456 2 0.790618 0.209641 0.00180971
3460 2 0.790618 0.209641 0.00143163
3581 2 0.707621 0.292638 0.00209294
3585 2 0.707621 0.292638 0.00171481
4086 2 0.624625 0.375635 0.0143541
4090 2 0.624625 0.375635 0.013976
1111 1 0.998239 0.375894 0.0245082
1115 1 0.998239 0.375894 0.0241301
1231 1 0.998239 0.25101 0.0245082
1235 1 0.998239 0.25101 0.0241301
1331 1 0.873355 0.25101 0.0245082
1335 1 0.873355 0.25101 0.0241301
3506 2 0.960651 0.292638 0.00209294
3510 2 0.960651 0.292638 0.00171481
3606 2 0.956611 0.292638 0.00209294
3610 2 0.956611 0.292638 0.00171481
4011 2 0.877655 0.375635 0.0143541
4015 2 0.877655 0.375635 0.013976
4111 2 0.873614 0.375635 0.0143541
4115 2 0.873614 0.375635 0.013976
1136 1 0.00227929 0.5 0.0245082
1140 1 0.00227929 0.5 0.0241301
1261 1 0.126386 0.5 0.0245082
1265 1 0.126386 0.5 0.0241301
1361 1 0.122345 0.5 0.0245082
1365 1 0.122345 0.5 0.0241301
3386 2 0.0436481 0.458631 0.00180971
3390 2 0.0436481 0.458631 0.00143163
3486 2 0.0396077 0.458631 0.00180971
3490 2 0.0396077 0.458631 0.00143163
1161 1 0.251269 0.5 0.0245082
1165 1 0.251269 0.5 0.0241301
1286 1 0.375375 0.5 0.0245082
1290 1 0.375375 0.5 0.0241301
3411 2 0.292638 0.458631 0.00180971
3415 2 0.292638 0.458631 0.00143163
3536 2 0.209641 0.541628 0.00209294
3540 2 0.209641 0.541628 0.00171481
1186 1 0.500259 0.5 0.0245082
1190 1 0.500259 0.5 0.0241301
3436 2 0.541628 0.458631 0.00180971
3440 2 0.541628 0.458631 0.00143163
3561 2 0.458631 0.541628 0.00209294
3565 2 0.458631 0.541628 0.00171481
1211 1 0.749249 0.5 0.0245082
1215 1 0.749249 0.5 0.0241301
1311 1 0.624365 0.5 0.0245082
1315 1 0.624365 0.5 0.0241301
3461 2 0.790618 0.458631 0.00180971
3465 2 0.790618 0.458631 0.00143163
3586 2 0.707621 0.541628 0.00209294
3590 2 0.707621 0.541628 0.00171481
1236 1 0.998239 0.5 0.0245082
1240 1 0.998239 0.5 0.0241301
1336 1 0.873355 0.5 0.0245082
1340 1 0.873355 0.5 0.0241301
3511 2 0.960651 0.541628 0.00209294
3515 2 0.960651 0.541628 0.00171481
3611 2 0.956611 0.541628 0.00209294
3615 2 0.956611 0.541628 0.00171481
1016 1 0.00227929 0.624884 0.0245082
1020 1 0.00227929 0.624884 0.0241301
1141 1 0.00227929 0.74899 0.0245082
1145 1 0.00227929 0.74899 0.0241301
1266 1 0.126386 0.74899 0.0245082
1270 1 0.126386 0.74899 0.0241301
1366 1 0.122345 0.74899 0.0245082
1370 1 0.122345 0.74899 0.0241301
3391 2 0.0436481 0.707621 0.00180971
3395 2 0.0436481 0.707621 0.00143163
3491 2 0.0396077 0.707621 0.00180971
3495 2 0.0396077 0.707621 0.00143163
4041 2 0.126645 0.624625 0.0143541
4045 2 0.126645 0.624625 0.013976
1041 1 0.251269 0.624884 0.0245082
1045 1 0.251269 0.624884 0.0241301
1166 1 0.251269 0.74899 0.0245082
1170 1 0.251269 0.74899 0.0241301
1291 1 0.375375 0.74899 0.0245082
1295 1 0.375375 0.74899 0.0241301
3416 2 0.292638 0.707621 0.00180971
3420 2 0.292638 0.707621 0.00143163
3541 2 0.209641 0.790618 0.00209294
3545 2 0.209641 0.790618 0.00171481
4066 2 0.375635 0.624625 0.0143541
4070 2 0.375635 0.624625 0.013976
1066 1 0.500259 0.624884 0.0245082
1070 1 0.500259 0.624884 0.0241301
1191 1 0.500259 0.74899 0.0245082
1195 1 0.500259 0.74899 0.0241301
3441 2 0.541628 0.707621 0.00180971
3445 2 0.541628 0.707621 0.00143163
3566 2 0.458631 0.790618 0.00209294
3570 2 0.458631 0.790618 0.00171481
1091 1 0.749249 0.624884 0.0245082
1095 1 0.749249 0.624884 0.0241301
1216 1 0.749249 0.74899 0.0245082
1220 1 0.749249 0.74899 0.0241301
1316 1 0.624365 0.74899 0.0245082
1320 1 0.624365 0.74899 0.0241301
3466 2 0.790618 0.707621 0.00180971
3470 2 0.790618 0.707621 0.00143163
3591 2 0.707621 0.790618 0.00209294
3595 2 0.707621 0.790618 0.00171481
4091 2 0.624625 0.624625 0.0143541
4095 2 0.624625 0.624625 0.013976
1116 1 0.998239 0.624884 0.0245082
1120 1 0.998239 0.624884 0.0241301
1241 1 0.998239 0.74899 0.0245082
1245 1 0.998239 0.74899 0.0241301
1341 1 0.873355 0.74899 0.0245082
1345 1 0.873355 0.74899 0.0241301
3516 2 0.960651 0.790618 0.00209294
3520 2 0.960651 0.790618 0.00171481
3616 2 0.956611 0.790618 0.00209294
3620 2 0.956611 0.790618 0.00171481
4016 2 0.877655 0.624625 0.0143541
4020 2 0.877655 0.624625 0.013976
4116 2 0.873614 0.624625 0.0143541
4120 2 0.873614 0.624625 0.013976
1001 1 0.00227929 0.877914 0.0245082
1005 1 0.00227929 0.877914 0.0241301
1021 1 0.00227929 0.873874 0.0245082
1025 1 0.00227929 0.873874 0.0241301
1146 1 0.00227929 0.99798 0.0245082
1150 1 0.00227929 0.99798 0.0241301
1271 1 0.126386 0.99798 0.0245082
1275 1 0.126386 0.99798 0.0241301
1371 1 0.122345 0.99798 0.0245082
1375 1 0.122345 0.99798 0.0241301
3376 2 0.0436481 0.960651 0.00180971
3380 2 0.0436481 0.960651 0.00143163
3396 2 0.0436481 0.956611 0.00180971
3400 2 0.0436481 0.956611 0.00143163
3476 2 0.0396077 0.960651 0.00180971
3480 2 0.0396077 0.960651 0.00143163
3496 2 0.0396077 0.956611 0.00180971
3500 2 0.0396077 0.956611 0.00143163
4026 2 0.126645 0.877655 0.0143541
4030 2 0.126645 0.877655 0.013976
4046 2 0.126645 0.873614 0.0143541
4050 2 0.126645 0.873614 0.013976
1026 1 0.251269 0.877914 0.0245082
1030 1 0.251269 0.877914 0.0241301
1046 1 0.251269 0.873874 0.0245082
1050 1 0.251269 0.873874 0.0241301
1171 1 0.251269 0.99798 0.0245082
1175 1 0.251269 0.99798 0.0241301
1296 1 0.375375 0.99798 0.0245082
1300 1 0.375375 0.99798 0.0241301
3401 2 0.292638 0.960651 0.00180971
3405 2 0.292638 0.960651 0.00143163
3421 2 0.292638 0.956611 0.00180971
3425 2 0.292638 0.956611 0.00143163
4051 2 0.375635 0.877655 0.0143541
4055 2 0.375635 0.877655 0.013976
4071 2 0.375635 0.873614 0.0143541
4075 2 0.375635 0.873614 0.013976
1051 1 0.500259 0.877914 0.0245082
1055 1 0.500259 0.877914 0.0241301
1071 1 0.500259 0.873874 0.0245082
1075 1 0.500259 0.873874 0.0241301
1196 1 0.500259 0.99798 0.0245082
1200 1 0.500259 0.99798 0.0241301
3426 2 0.541628 0.960651 0.00180971
3430 2 0.541628 0.960651 0.00143163
3446 2 0.541628 0.956611 0.00180971
3450 2 0.541628 0.956611 0.00143163
1076 1 0.749249 0.877914 0.0245082
1080 1 0.749249 0.877914 0.0241301
1096 1 0.749249 0.873874 0.0245082
1100 1 0.749249 0.873874 0.0241301
1221 1 0.749249 0.99798 0.0245082
1225 1 0.749249 0.99798 0.0241301
1321 1 0.624365 0.99798 0.0245082
1325 1 0.624365 0.99798 0.0241301
3451 2 0.790618 0.960651 0.00180971
3455 2 0.790618 0.960651 0.00143163
3471 2 0.790618 0.956611 0.00180971
3475 2 0.790618 0.956611 0.00143163
4076 2 0.624625 0.877655 0.0143541
4080 2 0.624625 0.877655 0.013976
4096 2 0.624625 0.873614 0.0143541
4100 2 0.624625 0.873614 0.013976
1101 1 0.998239 0.877914 0.0245082
1105 1 0.998239 0.877914 0.0241301
1121 1 0.998239 0.873874 0.0245082
1125 1 0.998239 0.873874 0.0241301
1246 1 0.998239 0.99798 0.0245082
1250 1 0.998239 0.99798 0.0241301
1346 1 0.873355 0.99798 0.0245082
1350 1 0.873355 0.99798 0.0241301
4001 2 0.877655 0.877655 0.0143541
4005 2 0.877655 0.877655 0.013976
4021 2 0.877655 0.873614 0.0143541
4025 2 0.877655 0.873614 0.013976
4101 2 0.873614 0.877655 0.0143541
4105 2 0.873614 0.877655 0.013976
4121 2 0.873614 0.873614 0.0143541
4125 2 0.873614 0.873614 0.013976
2251 1 0.0439072 0.085276 0.0626963
2255 1 0.0439072 0.085276 0.0623182
2271 1 0.0439072 0.0812356 0.0626963
2275 1 0.0439072 0.0812356 0.0623182
2351 1 0.0398668 0.085276 0.0626963
2355 1 0.0398668 0.085276 0.0623182
2371 1 0.0398668 0.0812356 0.0626963
2375 1 0.0398668 0.0812356 0.0623182
2526 1 0.168013 0.085276 0.0626963
2530 1 0.168013 0.085276 0.0623182
2546 1 0.168013 0.0812356 0.0626963
2550 1 0.168013 0.0812356 0.0623182
3781 2 0.126645 0.126645 0.0400776
3785 2 0.126645 0.126645 0.0396995
1776 1 0.209641 0.0436481 0.0436022
1780 1 0.209641 0.0436481 0.0432241
1796 1 0.209641 0.0396077 0.0436022
1800 1 0.209641 0.0396077 0.0432241
2276 1 0.292897 0.085276 0.0626963
2280 1 0.292897 0.085276 0.0623182
2296 1 0.292897 0.0812356 0.0626963
2300 1 0.292897 0.0812356 0.0623182
3806 2 0.375635 0.126645 0.0400776
3810 2 0.375635 0.126645 0.0396995
1801 1 0.458631 0.0436481 0.0436022
1805 1 0.458631 0.0436481 0.0432241
1821 1 0.458631 0.0396077 0.0436022
1825 1 0.458631 0.0396077 0.0432241
2301 1 0.541887 0.085276 0.0626963
2305 1 0.541887 0.085276 0.0623182
2321 1 0.541887 0.0812356 0.0626963
2325 1 0.541887 0.0812356 0.0623182
2551 1 0.417003 0.085276 0.0626963
2555 1 0.417003 0.085276 0.0623182
2571 1 0.417003 0.0812356 0.0626963
2575 1 0.417003 0.0812356 0.0623182
1826 1 0.707621 0.0436481 0.0436022
1830 1 0.707621 0.0436481 0.0432241
1846 1 0.707621 0.0396077 0.0436022
1850 1 0.707621 0.0396077 0.0432241
2326 1 0.790877 0.085276 0.0626963
2330 1 0.790877 0.085276 0.0623182
2346 1 0.790877 0.0812356 0.0626963
2350 1 0.790877 0.0812356 0.0623182
2576 1 0.665993 0.085276 0.0626963
2580 1 0.665993 0.085276 0.0623182
2596 1 0.665993 0.0812356 0.0626963
2600 1 0.665993 0.0812356 0.0623182
3831 2 0.624625 0.126645 0.0400776
3835 2 0.624625 0.126645 0.0396995
1751 1 0.960651 0.0436481 0.0436022
1755 1 0.960651 0.0436481 0.0432241
1771 1 0.960651 0.0396077 0.0436022
1775 1 0.960651 0.0396077 0.0432241
1851 1 0.956611 0.0436481 0.0436022
1855 1 0.956611 0.0436481 0.0432241
1871 1 0.956611 0.0396077 0.0436022
1875 1 0.956611 0.0396077 0.0432241
2501 1 0.919024 0.085276 0.0626963
2505 1 0.919024 0.085276 0.0623182
2521 1 0.919024 0.0812356 0.0626963
2525 1 0.919024 0.0812356 0.0623182
2601 1 0.914983 0.085276 0.0626963
2605 1 0.914983 0.085276 0.0623182
2621 1 0.914983 0.0812356 0.0626963
2625 1 0.914983 0.0812356 0.0623182
3756 2 0.877655 0.126645 0.0400776
3760 2 0.877655 0.126645 0.0396995
3856 2 0.873614 0.126645 0.0400776
3860 2 0.873614 0.126645 0.0396995
2256 1 0.0439072 0.334266 0.0626963
2260 1 0.0439072 0.334266 0.0623182
2356 1 0.0398668 0.334266 0.0626963
2360 1 0.0398668 0.334266 0.0623182
2406 1 0.168013 0.209382 0.0626963
2410 1 0.168013 0.209382 0.0623182
2531 1 0.168013 0.334266 0.0626963
2535 1 0.168013 0.334266 0.0623182
3786 2 0.126645 0.375635 0.0400776
3790 2 0.126645 0.375635 0.0396995
4381 2 0.0436481 0.209641 0.0471268
4385 2 0.0436481 0.209641 0.0467487
4481 2 0.0396077 0.209641 0.0471268
4485 2 0.0396077 0.209641 0.0467487
1781 1 0.209641 0.292638 0.0436022
1785 1 0.209641 0.292638 0.0432241
2281 1 0.292897 0.334266 0.0626963
2285 1 0.292897 0.334266 0.0623182
3811 2 0.375635 0.375635 0.0400776
3815 2 0.375635 0.375635 0.0396995
4406 2 0.292638 0.209641 0.0471268
4410 2 0.292638 0.209641 0.0467487
1806 1 0.458631 0.292638 0.0436022
1810 1 0.458631 0.292638 0.0432241
2306 1 0.541887 0.334266 0.0626963
2310 1 0.541887 0.334266 0.0623182
2431 1 0.417003 0.209382 0.0626963
2435 1 0.417003 0.209382 0.0623182
2556 1 0.417003 0.334266 0.0626963
2560 1 0.417003 0.334266 0.0623182
4431 2 0.541628 0.209641 0.0471268
4435 2 0.541628 0.209641 0.0467487
1831 1 0.707621 0.292638 0.0436022
1835 1 0.707621 0.292638 0.0432241
2331 1 0.790877 0.334266 0.0626963
2335 1 0.790877 0.334266 0.0623182
2456 1 0.665993 0.209382 0.0626963
2460 1 0.665993 0.209382 0.0623182
2581 1 0.665993 0.334266 0.0626963
2585 1 0.665993 0.334266 0.0623182
3836 2 0.624625 0.375635 0.0400776
3840 2 0.624625 0.375635 0.0396995
4456 2 0.790618 0.209641 0.0471268
4460 2 0.790618 0.209641 0.0467487
1756 1 0.960651 0.292638 0.0436022
1760 1 0.960651 0.292638 0.0432241
1856 1 0.956611 0.292638 0.0436022
1860 1 0.956611 0.292638 0.0432241
2381 1 0.919024 0.209382 0.0626963
2385 1 0.919024 0.209382 0.0623182
2481 1 0.914983 0.209382 0.0626963
2485 1 0.914983 0.209382 0.0623182
2506 1 0.919024 0.334266 0.0626963
2510 1 0.919024 0.334266 0.0623182
2606 1 0.914983 0.334266 0.0626963
2610 1 0.914983 0.334266 0.0623182
3761 2 0.877655 0.375635 0.0400776
3765 2 0.877655 0.375635 0.0396995
3861 2 0.873614 0.375635 0.0400776
3865 2 0.873614 0.375635 0.0396995
2261 1 0.0439072 0.583256 0.0626963
2265 1 0.0439072 0.583256 0.0623182
2361 1 0.0398668 0.583256 0.0626963
2365 1 0.0398668 0.583256 0.0623182
2411 1 0.168013 0.458372 0.0626963
2415 1 0.168013 0.458372 0.0623182
2536 1 0.168013 0.583256 0.0626963
2540 1 0.168013 0.583256 0.0623182
4386 2 0.0436481 0.458631 0.0471268
4390 2 0.0436481 0.458631 0.0467487
4486 2 0.0396077 0.458631 0.0471268
4490 2 0.0396077 0.458631 0.0467487
1786 1 0.209641 0.541628 0.0436022
1790 1 0.209641 0.541628 0.0432241
2286 1 0.292897 0.583256 0.0626963
2290 1 0.292897 0.583256 0.0623182
4411 2 0.292638 0.458631 0.0471268
4415 2 0.292638 0.458631 0.0467487
1811 1 0.458631 0.541628 0.0436022
1815 1 0.458631 0.541628 0.0432241
2311 1 0.541887 0.583256 0.0626963
2315 1 0.541887 0.583256 0.0623182
2436 1 0.417003 0.458372 0.0626963
2440 1 0.417003 0.458372 0.0623182
2561 1 0.417003 0.583256 0.0626963
2565 1 0.417003 0.583256 0.0623182
4436 2 0.541628 0.458631 0.0471268
4440 2 0.541628 0.458631 0.0467487
1836 1 0.707621 0.541628 0.0436022
1840 1 0.707621 0.541628 0.0432241
2336 1 0.790877 0.583256 0.0626963
2340 1 0.790877 0.583256 0.0623182
2461 1 0.665993 0.458372 0.0626963
2465 1 0.665993 0.458372 0.0623182
2586 1 0.665993 0.583256 0.0626963
2590 1 0.665993 0.583256 0.0623182
4461 2 0.790618 0.458631 0.0471268
4465 2 0.790618 0.458631 0.0467487
1761 1 0.960651 0.541628 0.0436022
1765 1 0.960651 0.541628 0.0432241
1861 1 0.956611 0.541628 0.0436022
1865 1 0.956611 0.541628 0.0432241
2386 1 0.919024 0.458372 0.0626963
2390 1 0.919024 0.458372 0.0623182
2486 1 0.914983 0.458372 0.0626963
2490 1 0.914983 0.458372 0.0623182
2511 1 0.919024 0.583256 0.0626963
2515 1 0.919024 0.583256 0.0623182
2611 1 0.914983 0.583256 0.0626963
2615 1 0.914983 0.583256 0.0623182
2416 1 0.168013 0.707362 0.0626963
2420 1 0.168013 0.707362 0.0623182
3791 2 0.126645 0.624625 0.0400776
3795 2 0.126645 0.624625 0.0396995
4391 2 0.0436481 0.707621 0.0471268
4395 2 0.0436481 0.707621 0.0467487
4491 2 0.0396077 0.707621 0.0471268
4495 2 0.0396077 0.707621 0.0467487
1791 1 0.209641 0.790618 0.0436022
1795 1 0.209641 0.790618 0.0432241
3816 2 0.375635 0.624625 0.0400776
3820 2 0.375635 0.624625 0.0396995
4416 2 0.292638 0.707621 0.0471268
4420 2 0.292638 0.707621 0.0467487
1816 1 0.458631 0.790618 0.0436022
1820 1 0.458631 0.790618 0.0432241
2441 1 0.417003 0.707362 0.0626963
2445 1 0.417003 0.707362 0.0623182
4441 2 0.541628 0.707621 0.0471268
4445 2 0.541628 0.707621 0.0467487
1841 1 0.707621 0.790618 0.0436022
1845 1 0.707621 0.790618 0.0432241
2466 1 0.665993 0.707362 0.0626963
2470 1 0.665993 0.707362 0.0623182
3841 2 0.624625 0.624625 0.0400776
3845 2 0.624625 0.624625 0.0396995
4466 2 0.790618 0.707621 0.0471268
4470 2 0.790618 0.707621 0.0467487
1766 1 0.960651 0.790618 0.0436022
1770 1 0.960651 0.790618 0.0432241
1866 1 0.956611 0.790618 0.0436022
1870 1 0.956611 0.790618 0.0432241
2391 1 0.919024 0.707362 0.0626963
2395 1 0.919024 0.707362 0.0623182
2491 1 0.914983 0.707362 0.0626963
2495 1 0.914983 0.707362 0.0623182
3766 2 0.877655 0.624625 0.0400776
3770 2 0.877655 0.624625 0.0396995
3866 2 0.873614 0.624625 0.0400776
3870 2 0.873614 0.624625 0.0396995
2266 1 0.0439072 0.832246 0.0626963
2270 1 0.0439072 0.832246 0.0623182
2366 1 0.0398668 0.832246 0.0626963
2370 1 0.0398668 0.832246 0.0623182
2401 1 0.168013 0.960392 0.0626963
2405 1 0.168013 0.960392 0.0623182
2421 1 0.168013 0.956352 0.0626963
2425 1 0.168013 0.956352 0.0623182
2541 1 0.168013 0.832246 0.0626963
2545 1 0.168013 0.832246 0.0623182
3776 2 0.126645 0.877655 0.0400776
3780 2 0.126645 0.877655 0.0396995
3796 2 0.126645 0.873614 0.0400776
3800 2 0.126645 0.873614 0.0396995
4376 2 0.0436481 0.960651 0.0471268
4380 2 0.0436481 0.960651 0.0467487
4396 2 0.0436481 0.956611 0.0471268
4400 2 0.0436481 0.956611 0.0467487
4476 2 0.0396077 0.960651 0.0471268
4480 2 0.0396077 0.960651 0.0467487
4496 2 0.0396077 0.956611 0.0471268
4500 2 0.0396077 0.956611 0.0467487
2291 1 0.292897 0.832246 0.0626963
2295 1 0.292897 0.832246 0.0623182
3801 2 0.375635 0.877655 0.0400776
3805 2 0.375635 0.877655 0.0396995
3821 2 0.375635 0.873614 0.0400776
3825 2 0.375635 0.873614 0.0396995
4401 2 0.292638 0.960651 0.0471268
4405 2 0.292638 0.960651 0.0467487
4421 2 0.292638 0.956611 0.0471268
4425 2 0.292638 0.956611 0.0467487
2316 1 0.541887 0.832246 0.0626963
2320 1 0.541887 0.832246 0.0623182
2426 1 0.417003 0.960392 0.0626963
2430 1 0.417003 0.960392 0.0623182
2446 1 0.417003 0.956352 0.0626963
2450 1 0.417003 0.956352 0.0623182
2566 1 0.417003 0.832246 0.0626963
2570 1 0.417003 0.832246 0.0623182
4426 2 0.541628 0.960651 0.0471268
4430 2 0.541628 0.960651 0.0467487
4446 2 0.541628 0.956611 0.0471268
4450 2 0.541628 0.956611 0.0467487
2341 1 0.790877 0.832246 0.0626963
2345 1 0.790877 0.832246 0.0623182
2451 1 0.665993 0.960392 0.0626963
2455 1 0.665993 0.960392 0.0623182
2471 1 0.665993 0.956352 0.0626963
2475 1 0.665993 0.956352 0.0623182
2591 1 0.665993 0.832246 0.0626963
2595 1 0.665993 0.832246 0.0623182
3826 2 0.624625 0.877655 0.0400776
3830 2 0.624625 0.877655 0.0396995
3846 2 0.624625 0.873614 0.0400776
3850 2 0.624625 0.873614 0.0396995
4451 2 0.790618 0.960651 0.0471268
4455 2 0.790618 0.960651 0.0467487
4471 2 0.790618 0.956611 0.0471268
4475 2 0.790618 0.956611 0.0467487
2376 1 0.919024 0.960392 0.0626963
2380 1 0.919024 0.960392 0.0623182
2396 1 0.919024 0.956352 0.0626963
2400 1 0.919024 0.956352 0.0623182
2476 1 0.914983 0.960392 0.0626963
2480 1 0.914983 0.960392 0.0623182
2496 1 0.914983 0.956352 0.0626963
2500 1 0.914983 0.956352 0.0623182
2516 1 0.919024 0.832246 0.0626963
2520 1 0.919024 0.832246 0.0623182
2616 1 0.914983 0.832246 0.0626963
2620 1 0.914983 0.832246 0.0623182
3751 2 0.877655 0.877655 0.0400776
3755 2 0.877655 0.877655 0.0396995
3771 2 0.877655 0.873614 0.0400776
3775 2 0.877655 0.873614 0.0396995
3851 2 0.873614 0.877655 0.0400776
3855 2 0.873614 0.877655 0.0396995
3871 2 0.873614 0.873614 0.0400776
3875 2 0.873614 0.873614 0.0396995
4281 2 0.126645 0.126645 0.0853948
4285 2 0.126645 0.126645 0.0850167
4151 2 0.209641 0.0436481 0.0851115
4155 2 0.209641 0.0436481 0.0847334
4171 2 0.209641 0.0396077 0.0851115
4175 2 0.209641 0.0396077 0.0847334
4306 2 0.375635 0.126645 0.0853948
4310 2 0.375635 0.126645 0.0850167
4176 2 0.458631 0.0436481 0.0851115
4180 2 0.458631 0.0436481 0.0847334
4196 2 0.458631 0.0396077 0.0851115
4200 2 0.458631 0.0396077 0.0847334
4201 2 0.707621 0.0436481 0.0851115
4205 2 0.707621 0.0436481 0.0847334
4221 2 0.707621 0.0396077 0.0851115
4225 2 0.707621 0.0396077 0.0847334
4331 2 0.624625 0.126645 0.0853948
4335 2 0.624625 0.126645 0.0850167
4126 2 0.960651 0.0436481 0.0851115
4130 2 0.960651 0.0436481 0.0847334
4146 2 0.960651 0.0396077 0.0851115
4150 2 0.960651 0.0396077 0.0847334
4226 2 0.956611 0.0436481 0.0851115
4230 2 0.956611 0.0436481 0.0847334
4246 2 0.956611 0.0396077 0.0851115
4250 2 0.956611 0.0396077 0.0847334
4256 2 0.877655 0.126645 0.0853948
4260 2 0.877655 0.126645 0.0850167
4356 2 0.873614 0.126645 0.0853948
4360 2 0.873614 0.126645 0.0850167
4286 2 0.126645 0.375635 0.0853948
4290 2 0.126645 0.375635 0.0850167
4631 2 0.0436481 0.209641 0.0728503
4635 2 0.0436481 0.209641 0.0724722
4731 2 0.0396077 0.209641 0.0728503
4735 2 0.0396077 0.209641 0.0724722
4756 2 0.0436481 0.209641 0.097656
4760 2 0.0436481 0.209641 0.0972778
4856 2 0.0396077 0.209641 0.097656
4860 2 0.0396077 0.209641 0.0972778
4156 2 0.209641 0.292638 0.0851115
4160 2 0.209641 0.292638 0.0847334
4311 2 0.375635 0.375635 0.0853948
4315 2 0.375635 0.375635 0.0850167
4656 2 0.292638 0.209641 0.0728503
4660 2 0.292638 0.209641 0.0724722
4781 2 0.292638 0.209641 0.097656
4785 2 0.292638 0.209641 0.0972778
4181 2 0.458631 0.292638 0.0851115
4185 2 0.458631 0.292638 0.0847334
4681 2 0.541628 0.209641 0.0728503
4685 2 0.541628 0.209641 0.0724722
4806 2 0.541628 0.209641 0.097656
4810 2 0.541628 0.209641 0.0972778
4206 2 0.707621 0.292638 0.0851115
4210 2 0.707621 0.292638 0.0847334
4336 2 0.624625 0.375635 0.0853948
4340 2 0.624625 0.375635 0.0850167
4706 2 0.790618 0.209641 0.0728503
4710 2 0.790618 0.209641 0.0724722
4831 2 0.790618 0.209641 0.097656
4835 2 0.790618 0.209641 0.0972778
4131 2 0.960651 0.292638 0.0851115
4135 2 0.960651 0.292638 0.0847334
4231 2 0.956611 0.292638 0.0851115
4235 2 0.956611 0.292638 0.0847334
4261 2 0.877655 0.375635 0.0853948
4265 2 0.877655 0.375635 0.0850167
4361 2 0.873614 0.375635 0.0853948
4365 2 0.873614 0.375635 0.0850167
4636 2 0.0436481 0.458631 0.0728503
4640 2 0.0436481 0.458631 0.0724722
4736 2 0.0396077 0.458631 0.0728503
4740 2 0.0396077 0.458631 0.0724722
4761 2 0.0436481 0.458631 0.097656
4765 2 0.0436481 0.458631 0.0972778
4861 2 0.0396077 0.458631 0.097656
4865 2 0.0396077 0.458631 0.0972778
4161 2 0.209641 0.541628 0.0851115
4165 2 0.209641 0.541628 0.0847334
4661 2 0.292638 0.458631 0.0728503
4665 2 0.292638 0.458631 0.0724722
4786 2 0.292638 0.458631 0.097656
4790 2 0.292638 0.458631 0.0972778
4186 2 0.458631 0.541628 0.0851115
4190 2 0.458631 0.541628 0.0847334
4686 2 0.541628 0.458631 0.0728503
4690 2 0.541628 0.458631 0.0724722
4811 2 0.541628 0.458631 0.097656
4815 2 0.541628 0.458631 0.0972778
4211 2 0.707621 0.541628 0.0851115
4215 2 0.707621 0.541628 0.0847334
4711 2 0.790618 0.458631 0.0728503
4715 2 0.790618 0.458631 0.0724722
4836 2 0.790618 0.458631 0.097656
4840 2 0.790618 0.458631 0.0972778
4136 2 0.960651 0.541628 0.0851115
4140 2 0.960651 0.541628 0.0847334
4236 2 0.956611 0.541628 0.0851115
4240 2 0.956611 0.541628 0.0847334
4291 2 0.126645 0.624625 0.0853948
4295 2 0.126645 0.624625 0.0850167
4641 2 0.0436481 0.707621 0.0728503
4645 2 0.0436481 0.707621 0.0724722
4741 2 0.0396077 0.707621 0.0728503
4745 2 0.0396077 0.707621 0.0724722
4766 2 0.0436481 0.707621 0.097656
4770 2 0.0436481 0.707621 0.0972778
4866 2 0.0396077 0.707621 0.097656
4870 2 0.0396077 0.707621 0.0972778
4166 2 0.209641 0.790618 0.0851115
4170 2 0.209641 0.790618 0.0847334
4316 2 0.375635 0.624625 0.0853948
4320 2 0.375635 0.624625 0.0850167
4666 2 0.292638 0.707621 0.0728503
4670 2 0.292638 0.707621 0.0724722
4791 2 0.292638 0.707621 0.097656
4795 2 0.292638 0.707621 0.0972778
4191 2 0.458631 0.790618 0.0851115
4195 2 0.458631 0.790618 0.0847334
4691 2 0.541628 0.707621 0.0728503
4695 2 0.541628 0.707621 0.0724722
4816 2 0.541628 0.707621 0.097656
4820 2 0.541628 0.707621 0.0972778
4216 2 0.707621 0.790618 0.0851115
4220 2 0.707621 0.790618 0.0847334
4341 2 0.624625 0.624625 0.0853948
4345 2 0.624625 0.624625 0.0850167
4716 2 0.790618 0.707621 0.0728503
4720 2 0.790618 0.707621 0.0724722
4841 2 0.790618 0.707621 0.097656
4845 2 0.790618 0.707621 0.0972778
4141 2 0.960651 0.790618 0.0851115
4145 2 0.960651 0.790618 0.0847334
4241 2 0.956611 0.790618 0.0851115
4245 2 0.956611 0.790618 0.0847334
4266 2 0.877655 0.624625 0.0853948
4270 2 0.877655 0.624625 0.0850167
4366 2 0.873614 0.624625 0.0853948
4370 2 0.873614 0.624625 0.0850167
4276 2 0.126645 0.877655 0.0853948
4280 2 0.126645 0.877655 0.0850167
4296 2 0.126645 0.873614 0.0853948
4300 2 0.126645 0.873614 0.0850167
4626 2 0.0436481 0.960651 0.0728503
4630 2 0.0436481 0.960651 0.0724722
4646 2 0.0436481 0.956611 0.0728503
4650 2 0.0436481 0.956611 0.0724722
4726 2 0.0396077 0.960651 0.0728503
4730 2 0.0396077 0.960651 0.0724722
4746 2 0.0396077 0.956611 0.0728503
4750 2 0.0396077 0.956611 0.0724722
4751 2 0.0436481 0.960651 0.097656
4755 2 0.0436481 0.960651 0.0972778
4771 2 0.0436481 0.956611 0.097656
4775 2 0.0436481 0.956611 0.0972778
4851 2 0.0396077 0.960651 0.097656
4855 2 0.0396077 0.960651 0.0972778
4871 2 0.0396077 0.956611 0.097656
4875 2 0.0396077 0.956611 0.0972778
4301 2 0.375635 0.877655 0.0853948
4305 2 0.375635 0.877655 0.0850167
4321 2 0.375635 0.873614 0.0853948
4325 2 0.375635 0.873614 0.0850167
4651 2 0.292638 0.960651 0.0728503
4655 2 0.292638 0.960651 0.0724722
4671 2 0.292638 0.956611 0.0728503
4675 2 0.292638 0.956611 0.0724722
4776 2 0.292638 0.960651 0.097656
4780 2 0.292638 0.960651 0.0972778
4796 2 0.292638 0.956611 0.097656
4800 2 0.292638 0.956611 0.0972778
4676 2 0.541628 0.960651 0.0728503
4680 2 0.541628 0.960651 0.0724722
4696 2 0.541628 0.956611 0.0728503
4700 2 0.541628 0.956611 0.0724722
4801 2 0.541628 0.960651 0.097656
4805 2 0.541628 0.960651 0.0972778
4821 2 0.541628 0.956611 0.097656
4825 2 0.541628 0.956611 0.0972778
4326 2 0.624625 0.877655 0.0853948
4330 2 0.624625 0.877655 0.0850167
4346 2 0.624625 0.873614 0.0853948
4350 2 0.624625 0.873614 0.0850167
4701 2 0.790618 0.960651 0.0728503
4705 2 0.790618 0.960651 0.0724722
4721 2 0.790618 0.956611 0.0728503
4725 2 0.790618 0.956611 0.0724722
4826 2 0.790618 0.960651 0.097656
4830 2 0.790618 0.960651 0.0972778
4846 2 0.790618 0.956611 0.097656
4850 2 0.790618 0.956611 0.0972778
4251 2 0.877655 0.877655 0.0853948
4255 2 0.877655 0.877655 0.0850167
4271 2 0.877655 0.873614 0.0853948
4275 2 0.877655 0.873614 0.0850167
4351 2 0.873614 0.877655 0.0853948
4355 2 0.873614 0.877655 0.0850167
4371 2 0.873614 0.873614 0.0853948
4375 2 0.873614 0.873614 0.0850167
32 1 0.126645 0.126645 0.126904
2026 1 0.168273 0.0850168 0.10781
2030 1 0.168273 0.0850168 0.107432
2046 1 0.168273 0.0809765 0.10781
2050 1 0.168273 0.0809765 0.107432
2126 1 0.0433889 0.0850168 0.10781
2130 1 0.0433889 0.0850168 0.107432
2146 1 0.0433889 0.0809765 0.10781
2150 1 0.0433889 0.0809765 0.107432
2226 1 0.0393485 0.0850168 0.10781
2230 1 0.0393485 0.0850168 0.107432
2246 1 0.0393485 0.0809765 0.10781
2250 1 0.0393485 0.0809765 0.107432
57 1 0.375635 0.126645 0.126904
2151 1 0.292379 0.0850168 0.10781
2155 1 0.292379 0.0850168 0.107432
2171 1 0.292379 0.0809765 0.10781
2175 1 0.292379 0.0809765 0.107432
2902 2 0.209641 0.0436481 0.130429
2922 2 0.209641 0.0396077 0.130429
2051 1 0.417262 0.0850168 0.10781
2055 1 0.417262 0.0850168 0.107432
2071 1 0.417262 0.0809765 0.10781
2075 1 0.417262 0.0809765 0.107432
2176 1 0.541369 0.0850168 0.10781
2180 1 0.541369 0.0850168 0.107432
2196 1 0.541369 0.0809765 0.10781
2200 1 0.541369 0.0809765 0.107432
2927 2 0.458631 0.0436481 0.130429
2947 2 0.458631 0.0396077 0.130429
82 1 0.624625 0.126645 0.126904
2076 1 0.666252 0.0850168 0.10781
2080 1 0.666252 0.0850168 0.107432
2096 1 0.666252 0.0809765 0.10781
2100 1 0.666252 0.0809765 0.107432
2201 1 0.790359 0.0850168 0.10781
2205 1 0.790359 0.0850168 0.107432
2221 1 0.790359 0.0809765 0.10781
2225 1 0.790359 0.0809765 0.107432
2952 2 0.707621 0.0436481 0.130429
2972 2 0.707621 0.0396077 0.130429
7 1 0.877655 0.126645 0.126904
107 1 0.873614 0.126645 0.126904
2001 1 0.919283 0.0850168 0.10781
2005 1 0.919283 0.0850168 0.107432
2021 1 0.919283 0.0809765 0.10781
2025 1 0.919283 0.0809765 0.107432