ITEM: TIMESTEP
0
ITEM: NUMBER OF ATOMS
4875
ITEM: BOX BOUNDS pp pp pp
2.4224350000000001e+00 2.2222434000000000e+01
2.4224350000000001e+00 2.2222434000000000e+01
1.3013550000000000e+01 1.1881355300000000e+02
ITEM: ATOMS id type xs ys zs
1006 1 0.0603514 0.133106 0.0332448
1010 1 0.0432342 0.160589 0.0155697
1126 1 0.0553444 0.0530397 0.0302868
1130 1 0.0400842 0.092134 0.0204001
1251 1 0.104348 0.0705515 0.0171512
1255 1 0.19923 0.0739231 0.0221825
1355 1 0.156991 0.0233929 0.0169322
4031 2 0.125694 0.155691 0.0232728
4035 2 0.174382 0.172055 0.0109254
3546 2 0.178393 0.050352 0.00369153
3501 2 0.0125896 0.0699193 0.0110679
3485 2 0.0635781 0.17594 8.3939e-05
1371 1 0.163317 0.0181073 0.0308936
3376 2 0.100452 0.0466654 0.00233976
1751 1 0.0422942 0.0590106 0.0326669
1031 1 0.255008 0.143026 0.0327509
1035 1 0.266896 0.143252 0.0177681
1151 1 0.249864 0.0383261 0.0296806
1155 1 0.288777 0.0590779 0.0180865
1276 1 0.388197 0.0356021 0.0331625
1280 1 0.365802 0.0472756 0.018876
3530 2 0.233035 0.132958 0.00321395
4056 2 0.354989 0.145051 0.0219563
4060 2 0.403276 0.162735 0.00907253
1056 1 0.500877 0.137277 0.0326816
1060 1 0.503314 0.141584 0.0172709
1176 1 0.469527 0.0421088 0.0268499
1180 1 0.528472 0.0615778 0.0174647
3551 2 0.499953 0.0475974 0.00123891
3555 2 0.486942 0.141799 0.00124536
3571 2 0.400383 0.0560797 0.00449475
3426 2 0.505167 0.0537194 0.00123492
1805 1 0.426544 0.0944491 0.0314616
1081 1 0.732895 0.150532 0.0306702
1085 1 0.731303 0.145736 0.0172754
1201 1 0.703681 0.0385027 0.0236459
1205 1 0.765657 0.0550048 0.0192042
1301 1 0.63297 0.0347775 0.0312967
1305 1 0.602545 0.054542 0.0194709
3576 2 0.753198 0.0493259 0.00261181
3580 2 0.717453 0.130932 0.000766681
3596 2 0.627818 0.0597166 0.00578797
4081 2 0.602568 0.147384 0.0232834
4085 2 0.643407 0.155605 0.00896206
3451 2 0.750482 0.0433877 0.00304134
1106 1 0.983654 0.168415 0.0291942
1110 1 0.940751 0.125351 0.022328
1226 1 0.972819 0.0720444 0.0296177
1230 1 0.935723 0.0247973 0.0231209
1326 1 0.880565 0.0497405 0.027514
1330 1 0.833602 0.0438937 0.0171364
3521 2 0.899586 0.123508 0.0014655
3601 2 0.943897 0.0771968 0.0126826
3621 2 0.912924 0.025076 0.00243203
4006 2 0.942416 0.178803 0.0130941
4010 2 0.857825 0.194884 0.0172727
4106 2 0.836757 0.115555 0.0219429
4110 2 0.831641 0.130531 0.00691187
1011 1 0.0543306 0.355307 0.0316861
1015 1 0.0493668 0.382365 0.016913
1131 1 0.0281465 0.277586 0.0272102
1135 1 0.0452833 0.233274 0.0170453
1256 1 0.17806 0.234773 0.0318684
1260 1 0.181834 0.245484 0.0171086
1356 1 0.107085 0.28092 0.0313606
1360 1 0.114006 0.28794 0.0171061
3381 2 0.125613 0.242043 0.00163171
3385 2 0.0410542 0.297342 0.00374904
4040 2 0.177619 0.357971 0.0121438
3510 2 0.0652029 0.287565 0.00422997
3490 2 0.0654377 0.388683 0.000199173
1036 1 0.255381 0.367754 0.0329931
1040 1 0.262128 0.379367 0.0158193
1160 1 0.280571 0.235552 0.0219653
1281 1 0.384681 0.2519 0.032773
1285 1 0.37272 0.255539 0.0157131
3406 2 0.255378 0.270138 0.00958472
3531 2 0.25298 0.275886 0.0058879
4061 2 0.356405 0.399011 0.0235827
4065 2 0.392243 0.359612 0.0111298
1061 1 0.501647 0.366713 0.0332276
1065 1 0.49949 0.381462 0.015565
1181 1 0.498733 0.27739 0.0331432
1185 1 0.509358 0.217679 0.0223266
3431 2 0.502785 0.271092 0.00925332
3556 2 0.488244 0.27616 0.00948763
1090 1 0.72367 0.385431 0.0167661
1206 1 0.725471 0.280472 0.0308354
1210 1 0.771672 0.226819 0.0221739
1306 1 0.634856 0.249469 0.0329618
1310 1 0.618565 0.256299 0.0158906
3456 2 0.723976 0.258266 0.0128034
3581 2 0.723474 0.26795 0.00790786
4086 2 0.602722 0.397852 0.0236655
4090 2 0.633919 0.361509 0.0109865
4115 2 0.789851 0.352809 0.00742709
4460 2 0.774351 0.220709 0.0325441
3481 2 0.983812 0.252145 0.00399795
1115 1 0.978164 0.342302 0.0200049
1231 1 0.952314 0.227743 0.0255365
1235 1 0.930095 0.289035 0.0207978
1331 1 0.85872 0.243167 0.032912
1335 1 0.84828 0.264612 0.0157396
3506 2 0.972453 0.352983 0.00107221
3606 2 0.942197 0.235388 0.000178125
3610 2 0.876132 0.266475 0.00178771
4015 2 0.870156 0.337931 0.0180127
4111 2 0.812643 0.398317 0.0240818
1860 1 0.91565 0.298435 0.032033
4036 2 0.131175 0.402956 0.0230174
1136 1 0.0267876 0.513111 0.0311152
1140 1 0.0332373 0.501125 0.0177004
1261 1 0.181166 0.480545 0.0329464
1265 1 0.177133 0.477109 0.0173336
1361 1 0.103603 0.520698 0.032155
1365 1 0.112582 0.531207 0.0179733
3386 2 0.143085 0.472066 0.00266407
3390 2 0.0515278 0.500105 0.00179921
3515 2 0.0533481 0.517738 0.000568859
4490 2 0.0396718 0.439678 0.0325685
1165 1 0.26866 0.465299 0.0222037
1286 1 0.383541 0.497838 0.0331165
1290 1 0.371823 0.500061 0.0155444
3411 2 0.263572 0.513923 0.00771254
3536 2 0.256365 0.521062 0.00816043
1190 1 0.517409 0.466893 0.0225226
3436 2 0.500235 0.505228 0.0081823
3561 2 0.483191 0.52132 0.00891403
1211 1 0.721311 0.512806 0.0314463
1215 1 0.778615 0.481609 0.0218145
1311 1 0.63264 0.496973 0.0331538
1315 1 0.616934 0.500667 0.0157238
3461 2 0.721799 0.504792 0.00977772
3586 2 0.725257 0.506684 0.00956642
1111 1 0.97032 0.411831 0.0273375
4011 2 0.935746 0.416844 0.0127038
3486 2 0.961644 0.484965 0.000902639
1236 1 0.944854 0.480326 0.030827
1240 1 0.946814 0.521417 0.0183148
1336 1 0.859311 0.491092 0.032306
1340 1 0.855031 0.504748 0.0166534
3511 2 0.964674 0.585676 0.00184462
3615 2 0.865813 0.50397 0.000535285
1120 1 0.973663 0.597677 0.0169551
4020 2 0.863399 0.591728 0.0180592
1865 1 0.905557 0.562543 0.0326097
3870 2 0.916597 0.558308 0.032154
3986 2 0.846382 0.418945 0.00205895
1016 1 0.0608814 0.606789 0.030406
1020 1 0.0507925 0.603039 0.0157597
1141 1 0.0280107 0.737058 0.0289012
1145 1 0.0321746 0.748819 0.0160769
1266 1 0.18577 0.713393 0.0322319
1270 1 0.185932 0.73108 0.0165848
1366 1 0.103501 0.751388 0.0311135
1370 1 0.0991525 0.710013 0.0192272
3391 2 0.124002 0.706885 0.00287026
4041 2 0.126483 0.640429 0.0228393
4045 2 0.178887 0.606309 0.011899
3520 2 0.0547448 0.745809 0.00218807
4050 2 0.153363 0.782075 0.00894326
1795 1 0.178783 0.791019 0.0314803
1041 1 0.255811 0.613306 0.0324351
1045 1 0.261293 0.627628 0.015854
1170 1 0.274121 0.704513 0.0224655
1291 1 0.379309 0.735183 0.0327405
1295 1 0.376593 0.731198 0.0158415
3416 2 0.257954 0.73961 0.00699246
3541 2 0.254148 0.735669 0.00810391
4066 2 0.356608 0.64081 0.0234098
4070 2 0.392636 0.606063 0.010978
1066 1 0.502321 0.612436 0.033177
1070 1 0.498458 0.627805 0.0156514
1195 1 0.522463 0.709216 0.0220948
3441 2 0.485699 0.729815 0.0081858
3566 2 0.48402 0.741479 0.00830969
1091 1 0.740557 0.612015 0.0328075
1095 1 0.72455 0.625859 0.0164187
1216 1 0.725392 0.747355 0.032556
1220 1 0.769863 0.711028 0.0217536
1316 1 0.634421 0.720303 0.032853
1320 1 0.618537 0.728137 0.0155032
3466 2 0.699995 0.718539 0.0114595
3591 2 0.706495 0.733814 0.0083246
4091 2 0.601199 0.638053 0.0234841
4095 2 0.634646 0.603959 0.010876
4120 2 0.797666 0.629342 0.00792809
1116 1 0.964166 0.615711 0.0316941
1241 1 0.955747 0.705568 0.0305214
1245 1 0.938802 0.740265 0.0181267
1341 1 0.861286 0.724678 0.0321448
1345 1 0.85535 0.72905 0.0188593
3620 2 0.896487 0.755835 0.00294201
4016 2 0.93018 0.661111 0.0163244
4116 2 0.822097 0.635265 0.0283117
4121 2 0.817707 0.760576 0.00657293
3525 2 0.0108816 0.994125 0.0112851
1001 1 0.0628851 0.894909 0.0330222
1005 1 0.0516574 0.909162 0.0175991
1021 1 0.0511192 0.82221 0.015957
1025 1 0.0533903 0.828669 0.0312615
1146 1 0.0139023 0.944817 0.0313069
1150 1 0.0421753 0.975856 0.0210808
1271 1 0.117941 0.932234 0.0286398
1275 1 0.192693 0.94661 0.0239283
1375 1 0.105304 0.972903 0.0170023
3396 2 0.0691925 0.887788 0.0064147
3480 2 0.129409 0.905067 0.00225597
4026 2 0.191804 0.851193 0.0159035
4030 2 0.164482 0.926292 0.0115646
4046 2 0.116922 0.818491 0.0229289
3550 2 0.237525 0.950084 0.00453321
1030 1 0.278765 0.902553 0.0179971
1046 1 0.262091 0.825943 0.0315777
1050 1 0.259876 0.825751 0.0157419
1171 1 0.28488 0.97102 0.026274
1175 1 0.24402 0.976255 0.0171071
1296 1 0.351149 0.974042 0.0266546
3421 2 0.276156 0.862907 0.00293679
4051 2 0.332386 0.808925 0.0200557
4055 2 0.374988 0.933637 0.0105309
3575 2 0.488377 0.965978 0.00081505
1300 1 0.406493 0.955153 0.0212206
4071 2 0.413225 0.871167 0.0260684
4075 2 0.405473 0.843974 0.0093971
1051 1 0.476207 0.900056 0.0314587
1055 1 0.505271 0.898287 0.0185069
1075 1 0.51138 0.816541 0.0159895
1196 1 0.52454 0.982986 0.0265757
1200 1 0.469332 0.966195 0.0171121
3430 2 0.591005 0.963727 0.00121992
3446 2 0.498907 0.864579 0.00309298
3450 2 0.494329 0.971898 0.000565015
1321 1 0.595836 0.969477 0.0301824
4080 2 0.591983 0.930625 0.0165877
4096 2 0.585796 0.814875 0.026536
3600 2 0.702344 0.96108 0.00149097
1076 1 0.713461 0.904856 0.0316062
1080 1 0.726634 0.891056 0.016493
1096 1 0.719398 0.82881 0.0305599
1100 1 0.720258 0.816233 0.0176689
1221 1 0.755055 0.962773 0.0287418
1225 1 0.72661 0.958799 0.0172169
1325 1 0.656744 0.983194 0.0193936
3455 2 0.798482 0.958541 0.00283685
3471 2 0.747082 0.881106 0.00217787
3475 2 0.704898 0.973406 0.00323338
4076 2 0.653027 0.870597 0.0155721
4100 2 0.600684 0.806116 0.0097109
4105 2 0.79119 0.809265 0.0168435
3625 2 0.890274 0.988482 0.00873887
3516 2 0.962912 0.813652 0.00329164
1101 1 0.953729 0.894572 0.0318286
1105 1 0.987663 0.912339 0.0134812
1121 1 0.949067 0.800379 0.028928
1125 1 0.994554 0.856889 0.0255144
1246 1 0.960407 0.977773 0.0317446
1250 1 0.944989 0.966109 0.0159503
1346 1 0.852511 0.995642 0.030846
1350 1 0.830615 0.963152 0.0215462
4001 2 0.971742 0.842147 0.0137434
4005 2 0.870471 0.899094 0.00742042
4021 2 0.875664 0.875799 0.0182582
4025 2 0.910732 0.824257 0.0194051
4101 2 0.847345 0.952283 0.00875696
4125 2 0.818051 0.863857 0.0217005
3875 2 0.80242 0.861877 0.0326851
1351 1 0.119016 0.0699935 0.0369107
2255 1 0.0995722 0.128734 0.0601629
2275 1 0.113383 0.0572459 0.0537535
2351 1 0.038259 0.127685 0.0589232
2375 1 0.0258091 0.0592359 0.0645337
2530 1 0.16316 0.128129 0.0568852
2550 1 0.198021 0.0701778 0.0599753
3781 2 0.144596 0.148997 0.0444837
3785 2 0.173754 0.112645 0.0336196
1780 1 0.174708 0.110009 0.0344594
4476 2 0.039671 0.0606441 0.0513802
1776 1 0.232891 0.100195 0.0464024
1796 1 0.209683 0.023059 0.048819
2280 1 0.310495 0.131298 0.0553911
2300 1 0.273116 0.0699885 0.0580616
3806 2 0.395804 0.157592 0.0457312
2555 1 0.380969 0.116617 0.0588397
4401 2 0.336152 0.0206331 0.0532582
4405 2 0.316504 0.0605044 0.0371608
3810 2 0.422779 0.116063 0.0347747
1801 1 0.472862 0.0940641 0.0471692
2305 1 0.557803 0.12486 0.0541428
2325 1 0.512712 0.0765376 0.0595929
2575 1 0.436037 0.069999 0.0601986
4430 2 0.550532 0.0480061 0.0387548
1826 1 0.720329 0.0772964 0.0452995
1830 1 0.660774 0.0847623 0.0358782
1850 1 0.694594 0.00188129 0.0375159
2330 1 0.768954 0.149037 0.0541128
2350 1 0.755141 0.0839386 0.059145
2580 1 0.693563 0.144468 0.055345
2600 1 0.652373 0.0636282 0.0548433
3831 2 0.618567 0.153939 0.0482328
3835 2 0.672291 0.142392 0.0352037
3860 2 0.798596 0.128906 0.0350606
4451 2 0.758721 0.0290567 0.0503628
4455 2 0.78888 0.0276505 0.0335697
2355 1 0.991937 0.150515 0.0536538
1755 1 0.985105 0.135456 0.0425301
1771 1 0.961099 0.0764079 0.0499007
1775 1 0.952252 0.038867 0.0400378
1851 1 0.856021 0.0685266 0.042542
1855 1 0.908104 0.09845 0.0377527
1875 1 0.889568 0.00822197 0.0476364
2501 1 0.940486 0.167253 0.0600468
2521 1 0.951143 0.0770594 0.0504463
2525 1 0.949939 0.0506308 0.0624725
2601 1 0.872117 0.103114 0.0570191
2605 1 0.870473 0.163235 0.0631128
2621 1 0.840697 0.052983 0.0623796
3756 2 0.871308 0.178719 0.0410353
3760 2 0.962349 0.156743 0.0408495
3856 2 0.854862 0.107537 0.0520445
2260 1 0.0901698 0.318735 0.0546602
2360 1 0.0203023 0.35691 0.0547391
2410 1 0.188004 0.224426 0.0565301
2531 1 0.165633 0.376379 0.0642924
2535 1 0.187598 0.314326 0.05444
3786 2 0.147418 0.387541 0.050955
3790 2 0.176732 0.33771 0.0354994
4381 2 0.0358312 0.278933 0.0460583
4385 2 0.135034 0.235575 0.0457048
4481 2 0.0247383 0.209036 0.053175
4485 2 0.0389693 0.20962 0.0333846
1785 1 0.186075 0.3281 0.0366818
1756 1 0.0399723 0.269126 0.0451571
4735 2 0.00463607 0.256182 0.0650585
1156 1 0.25137 0.269051 0.0356605
1781 1 0.249501 0.262015 0.0501095
2285 1 0.286441 0.337858 0.053701
3811 2 0.36986 0.387326 0.0501144
4406 2 0.254442 0.256399 0.0501611
4410 2 0.309365 0.200384 0.0370605
4660 2 0.323816 0.212231 0.0623703
3815 2 0.413478 0.335592 0.0354937
1806 1 0.488819 0.265969 0.0495436
1810 1 0.42558 0.323173 0.0365213
2310 1 0.533784 0.339094 0.0535484
2435 1 0.414624 0.226366 0.054029
2556 1 0.410195 0.372377 0.0640183
2560 1 0.417778 0.312378 0.0530624
4431 2 0.497892 0.254957 0.0491211
4435 2 0.553707 0.205721 0.0358745
4685 2 0.539246 0.216867 0.0630374
1086 1 0.739638 0.37037 0.0337645
1831 1 0.72936 0.259104 0.0501716
1835 1 0.669135 0.326447 0.0369236
2335 1 0.761474 0.330597 0.0534582
2460 1 0.655345 0.23015 0.0533947
2585 1 0.669858 0.323688 0.0536805
3836 2 0.612934 0.38933 0.0497719
3840 2 0.660728 0.333813 0.0358696
4456 2 0.733696 0.255179 0.0508661
4710 2 0.792868 0.214934 0.0639476
1760 1 0.991504 0.311455 0.0383534
1856 1 0.924909 0.279406 0.0462572
2385 1 0.934332 0.228107 0.0540975
2485 1 0.860107 0.221508 0.0532874
2506 1 0.929333 0.36168 0.0664924
2510 1 0.942331 0.340844 0.0538726
2606 1 0.847809 0.363258 0.0629255
2610 1 0.866352 0.295915 0.0576589
3761 2 0.947939 0.378563 0.0402637
3765 2 0.820619 0.318585 0.0404711
3861 2 0.832214 0.378549 0.0578608
2265 1 0.0907256 0.566353 0.0550345
2365 1 0.0283425 0.594339 0.0537495
2415 1 0.180134 0.460847 0.0553744
2540 1 0.192105 0.58223 0.0549743
4386 2 0.125348 0.506416 0.0470844
4390 2 0.0681403 0.426164 0.047105
1790 1 0.176971 0.563383 0.036742
1765 1 0.0123733 0.571193 0.0377882
3795 2 0.189263 0.588124 0.0345331
4740 2 0.0207174 0.497126 0.0632726
1161 1 0.261948 0.525834 0.0340111
1786 1 0.242712 0.513121 0.0508923
2290 1 0.287805 0.586643 0.0533176
4411 2 0.260258 0.498307 0.0508917
4415 2 0.300872 0.444638 0.0363838
4665 2 0.317006 0.435116 0.0634494
1186 1 0.494291 0.51942 0.0340795
1811 1 0.483932 0.517114 0.0499994
1815 1 0.426375 0.571397 0.0361458
2315 1 0.532995 0.586378 0.05346
2440 1 0.414907 0.469254 0.0536578
2565 1 0.420714 0.576409 0.0548272
4436 2 0.501208 0.499629 0.0493963
4440 2 0.55012 0.446648 0.0355819
3820 2 0.416145 0.582285 0.0354757
4690 2 0.551945 0.45188 0.0620094
1836 1 0.726607 0.509646 0.0507078
1840 1 0.672068 0.574288 0.0367533
2340 1 0.762597 0.579674 0.0547668
2465 1 0.657591 0.46796 0.0532835
2590 1 0.67551 0.581374 0.0540776
4461 2 0.728985 0.507898 0.0507729
4465 2 0.7764 0.456387 0.0369237
3845 2 0.663905 0.582458 0.0358424
4715 2 0.784973 0.455762 0.0623991
3865 2 0.877367 0.4129 0.0371556
4486 2 0.983811 0.445109 0.0511708
1761 1 0.991619 0.537391 0.0488079
1861 1 0.893162 0.531245 0.0464641
2390 1 0.922994 0.480942 0.0593107
2490 1 0.883449 0.433552 0.0526781
2515 1 0.934831 0.554849 0.0590879
2611 1 0.848914 0.54828 0.0650436
3866 2 0.831008 0.557678 0.0449207
2420 1 0.182439 0.700924 0.0534904
3791 2 0.137527 0.626704 0.0492021
4391 2 0.0524221 0.754465 0.0489274
4395 2 0.109543 0.6943 0.0424328
4495 2 0.0328593 0.669831 0.0352185
1766 1 0.0243162 0.761718 0.0500541
1770 1 0.00922931 0.785157 0.0366944
2270 1 0.0942419 0.797672 0.0562312
3796 2 0.169399 0.789351 0.0500446
4645 2 0.127245 0.728402 0.0663106
1166 1 0.256582 0.7572 0.0345528
1791 1 0.219942 0.759728 0.0492189
3816 2 0.36589 0.637836 0.049073
4416 2 0.258227 0.745905 0.0488994
4420 2 0.30039 0.685092 0.0361608
4670 2 0.298263 0.686735 0.0617538
1191 1 0.486746 0.748103 0.0341941
1816 1 0.479082 0.757442 0.0481641
2445 1 0.415983 0.711552 0.0532014
4441 2 0.501662 0.741154 0.0490077
4445 2 0.549366 0.690622 0.0358326
4695 2 0.54864 0.698165 0.0623771
1841 1 0.715164 0.75198 0.0507123
1845 1 0.664501 0.793893 0.0351797
2470 1 0.657023 0.708512 0.0531093
3841 2 0.609364 0.63406 0.0495191
4466 2 0.726537 0.742062 0.0514007
4470 2 0.787303 0.704446 0.0363181
3850 2 0.660563 0.794821 0.0352222
4720 2 0.785468 0.706488 0.0628789
2511 1 0.950455 0.621925 0.066297
2615 1 0.886313 0.610737 0.0590176
4491 2 0.99795 0.661972 0.0520902
1866 1 0.942567 0.733932 0.0471925
1870 1 0.922531 0.761432 0.0362384
2395 1 0.92007 0.726741 0.0604502
2495 1 0.881551 0.676033 0.0545404
3766 2 0.91922 0.652644 0.042251
3770 2 0.811642 0.655353 0.0504938
3771 2 0.862442 0.787569 0.0409694
3775 2 0.911954 0.797206 0.0575672
4745 2 0.997367 0.727782 0.065264
2370 1 0.0325412 0.842518 0.0582594
2405 1 0.18509 0.976362 0.0559811
3776 2 0.162256 0.880805 0.0478154
3780 2 0.169451 0.895242 0.0350802
3800 2 0.168346 0.804502 0.0360911
4376 2 0.115795 0.984027 0.0368443
4380 2 0.0443553 0.984996 0.0370591
4396 2 0.121097 0.982872 0.0517233
4400 2 0.107757 0.908256 0.0522691
4480 2 0.0330882 0.989975 0.049954
4500 2 0.0379162 0.87306 0.0459685
4650 2 0.0890349 0.888775 0.0638499
4750 2 0.0350955 0.949647 0.0646501
1026 1 0.257459 0.897153 0.0337132
1800 1 0.221651 0.986458 0.0379257
2425 1 0.208842 0.904708 0.0558871
2545 1 0.213717 0.822869 0.0607862
2295 1 0.291662 0.816059 0.0568252
3801 2 0.387022 0.909208 0.0467365
3805 2 0.343076 0.899395 0.0334286
3821 2 0.364698 0.801132 0.0505599
4421 2 0.267943 0.875887 0.0482295
4425 2 0.267314 0.969932 0.042733
4655 2 0.266475 0.9894 0.0653036
4675 2 0.330792 0.897722 0.0649907
1071 1 0.512444 0.826526 0.0337702
1821 1 0.473859 0.995149 0.0475131
1825 1 0.440871 0.977833 0.035969
1820 1 0.419164 0.801349 0.0376463
3825 2 0.427278 0.802545 0.0355612
2320 1 0.527708 0.826686 0.0543534
2430 1 0.406579 0.992798 0.0532447
2450 1 0.437307 0.902034 0.057427
2570 1 0.439829 0.81926 0.0575283
4426 2 0.579527 0.996037 0.0530935
4446 2 0.494859 0.923509 0.0498656
4450 2 0.542405 0.913327 0.0379579
4680 2 0.510222 0.998088 0.0628662
1846 1 0.697025 0.999172 0.050137
2345 1 0.782926 0.809001 0.0553656
2455 1 0.645068 0.974843 0.0551492
2475 1 0.664055 0.905822 0.054899
2595 1 0.6959 0.835138 0.0585779
3826 2 0.61394 0.864606 0.0429424
3830 2 0.651502 0.940843 0.0371277
3846 2 0.613118 0.808499 0.0567307
4471 2 0.731042 0.899509 0.0477212
4475 2 0.791104 0.954335 0.0460328
3851 2 0.757094 0.832863 0.0422864
4705 2 0.778879 0.990507 0.0639708
1871 1 0.95419 0.966249 0.0439522
4496 2 0.95991 0.95769 0.0469239
2376 1 0.823544 0.947041 0.05962
2380 1 0.94972 0.984989 0.0602281
2400 1 0.927373 0.889714 0.0521819
2480 1 0.868455 0.997026 0.058896
2496 1 0.857473 0.89673 0.0657825
2500 1 0.910447 0.917344 0.0639538
2516 1 0.960568 0.83459 0.0663602
2520 1 0.928404 0.814339 0.0566946
2620 1 0.840537 0.854927 0.0575462
3751 2 0.893951 0.951062 0.0342131
3755 2 0.967035 0.845818 0.0425628
3855 2 0.857783 0.916333 0.0456804
3871 2 0.851034 0.861718 0.0396168
2251 1 0.087005 0.137971 0.07245
2271 1 0.103041 0.0375003 0.0670086
2371 1 0.00905827 0.115574 0.0703082
2546 1 0.16768 0.0487581 0.0726448
4281 2 0.155912 0.154065 0.0906846
4285 2 0.151138 0.118134 0.0766321
4126 2 0.0491022 0.123333 0.085257
4146 2 0.00808469 0.0656213 0.0851675
4230 2 0.0347188 0.0287875 0.079662
4860 2 0.010455 0.186189 0.097363
4630 2 0.103172 0.000947689 0.0810426
4751 2 0.096983 0.0111263 0.0951795
2130 1 0.095989 0.103427 0.096731
2526 1 0.205666 0.153095 0.0667023
2276 1 0.281558 0.138726 0.0699936
2296 1 0.306623 0.0562432 0.0733013
2571 1 0.38508 0.0371156 0.0697957
4151 2 0.214247 0.163132 0.0894347
4155 2 0.26969 0.0821388 0.0846945
4175 2 0.209673 0.0415759 0.083397
4306 2 0.369945 0.153593 0.0929256
4310 2 0.375773 0.122508 0.0771974
2175 1 0.303374 0.0710947 0.0994431
2301 1 0.525905 0.140326 0.0699132
2321 1 0.561892 0.0582494 0.0713477
2551 1 0.446459 0.153848 0.0669715
4176 2 0.458941 0.16428 0.0887834
4180 2 0.506284 0.0875063 0.082239
4200 2 0.433141 0.0476318 0.0816066
4335 2 0.597327 0.148178 0.0770058
4676 2 0.575646 0.00446816 0.0811863
2326 1 0.776231 0.138327 0.069764
2346 1 0.785343 0.0488466 0.0712174
2576 1 0.655514 0.139308 0.0671381
2596 1 0.634536 0.0563997 0.068507
4201 2 0.648411 0.131317 0.0936346
4205 2 0.711899 0.129543 0.0779528
4221 2 0.677541 0.000461055 0.091047
4225 2 0.687646 0.0544495 0.0783439
4331 2 0.644702 0.132678 0.093178
4356 2 0.778915 0.14027 0.0906568
4701 2 0.770984 0.0115534 0.0838645
2505 1 0.943597 0.108905 0.0686202
2625 1 0.881893 0.0730427 0.0725906
4130 2 0.895618 0.120394 0.0897917
4150 2 0.971497 0.0351475 0.0916407
4226 2 0.943104 0.159445 0.0769602
4246 2 0.873123 0.00782194 0.0780529
4250 2 0.90847 0.0303912 0.0901766
4260 2 0.896801 0.113244 0.0890799
4360 2 0.820873 0.105082 0.0789552
4730 2 0.997725 0.0212682 0.0720262
2256 1 0.101896 0.322135 0.0718857
2356 1 0.0154199 0.329809 0.06778
4286 2 0.147453 0.384847 0.091189
4290 2 0.187625 0.335169 0.0782267
4631 2 0.0676724 0.207353 0.0712628
4635 2 0.130432 0.243996 0.0673301
4731 2 0.033458 0.221307 0.0847347
4760 2 0.10766 0.244407 0.0894605
4131 2 0.0039342 0.322461 0.0913503
4636 2 0.0499805 0.395191 0.071478
2406 1 0.20739 0.225478 0.0726131
2281 1 0.299097 0.338633 0.0711525
4156 2 0.217746 0.284904 0.0958002
4160 2 0.202597 0.324458 0.077492
4311 2 0.368677 0.388925 0.0933286
4656 2 0.300105 0.251607 0.0756107
4785 2 0.301378 0.232474 0.0905404
2306 1 0.536223 0.328684 0.0705196
2431 1 0.41178 0.224682 0.0708947
4315 2 0.406236 0.335545 0.0789741
4181 2 0.46422 0.288996 0.0953596
4185 2 0.440395 0.308687 0.0771369
4681 2 0.575393 0.248814 0.0780188
4810 2 0.532894 0.235033 0.0919368
2331 1 0.773011 0.326696 0.0695546
2456 1 0.659908 0.219466 0.0691109
2581 1 0.66652 0.344493 0.0673434
4206 2 0.67351 0.344316 0.091649
4210 2 0.688912 0.287456 0.0767883
4336 2 0.641325 0.363897 0.094786
4340 2 0.608919 0.381871 0.0763941
4706 2 0.756979 0.240576 0.0765081
4835 2 0.748109 0.2394 0.0927735
1960 1 0.660705 0.226957 0.0999371
2210 1 0.766666 0.340183 0.0994604
2381 1 0.944083 0.217311 0.0706457
2481 1 0.870643 0.227542 0.0707569
4256 2 0.848334 0.216317 0.0877345
4135 2 0.964871 0.337318 0.0793997
4231 2 0.896243 0.299284 0.0982415
4235 2 0.940825 0.255345 0.0813698
4265 2 0.95617 0.344392 0.0798093
4361 2 0.802886 0.388628 0.0833229
4365 2 0.846556 0.314317 0.0788308
2261 1 0.0935329 0.581327 0.0711351
2361 1 0.0181024 0.580722 0.0679339
2411 1 0.198821 0.441392 0.0710398
2536 1 0.191344 0.563574 0.068026
4640 2 0.13369 0.496261 0.0702397
4736 2 0.0594819 0.477672 0.0778938
4765 2 0.0940476 0.454935 0.0908021
4865 2 0.0225584 0.415176 0.0973098
4161 2 0.192557 0.570389 0.0918339
4136 2 0.0145891 0.579656 0.0899227
4291 2 0.154748 0.59029 0.0910601
1915 1 0.19014 0.46365 0.0994868
2286 1 0.293206 0.580198 0.069735
4165 2 0.235683 0.530768 0.0792155
4661 2 0.292362 0.463973 0.0776124
4790 2 0.303902 0.44978 0.0927719
2165 1 0.293705 0.577292 0.099643
2311 1 0.540133 0.580208 0.0699956
2436 1 0.414089 0.453843 0.0710166
2561 1 0.426301 0.575553 0.0695397
4186 2 0.427964 0.570979 0.090611
4190 2 0.475432 0.521389 0.0783483
4686 2 0.537197 0.454907 0.0787111
4815 2 0.56088 0.449269 0.0942799
1940 1 0.420529 0.468792 0.0997022
2190 1 0.531247 0.578112 0.099868
2336 1 0.768554 0.583294 0.0697113
2461 1 0.660769 0.456776 0.0694665
2586 1 0.657058 0.572561 0.0678153
4211 2 0.668029 0.57851 0.0912712
4215 2 0.707435 0.534398 0.0769906
4711 2 0.75136 0.451997 0.0774823
4840 2 0.750352 0.481377 0.0939643
1965 1 0.660117 0.469949 0.0998562
2215 1 0.775703 0.58179 0.0995792
2386 1 0.9445 0.433599 0.0702505
2486 1 0.864909 0.474007 0.0701316
4261 2 0.873 0.422066 0.0919858
4140 2 0.952846 0.568562 0.0782595
4236 2 0.882779 0.5394 0.0966908
4240 2 0.94316 0.476825 0.0829481
4270 2 0.952789 0.567432 0.0788687
4370 2 0.822826 0.563745 0.0820995
2416 1 0.198753 0.694509 0.0679731
2266 1 0.0943391 0.790151 0.070237
2366 1 0.0219875 0.798075 0.0682212
4295 2 0.168167 0.632253 0.0746701
4641 2 0.0601382 0.667436 0.0694136
4741 2 0.0359047 0.666122 0.0837201
4770 2 0.115362 0.687091 0.0901494
4145 2 0.0284695 0.78181 0.0877246
4300 2 0.116334 0.76984 0.085076
1920 1 0.191583 0.694814 0.0998768
4166 2 0.230995 0.786608 0.0968543
4170 2 0.228114 0.752529 0.076944
4316 2 0.391558 0.609935 0.0933182
4320 2 0.368963 0.628712 0.0748802
4666 2 0.297646 0.698296 0.0793933
4795 2 0.284306 0.662024 0.0946968
4325 2 0.388218 0.752015 0.0803639
2441 1 0.420009 0.695178 0.0682496
4191 2 0.469568 0.797124 0.0940242
4195 2 0.455044 0.759875 0.0782508
4691 2 0.532573 0.694438 0.0792759
4820 2 0.533857 0.66486 0.0950786
1945 1 0.419071 0.705278 0.0999484
2466 1 0.659828 0.695728 0.0678232
2341 1 0.77583 0.794599 0.0700695
4216 2 0.695084 0.799493 0.095518
4220 2 0.685614 0.761929 0.076835
4341 2 0.633894 0.605388 0.0941604
4345 2 0.617472 0.63084 0.0756645
4716 2 0.743582 0.674479 0.0766697
4845 2 0.752137 0.679974 0.0934179
4350 2 0.635634 0.748999 0.082694
2391 1 0.936333 0.677096 0.072563
2491 1 0.857591 0.719693 0.0691014
4241 2 0.895953 0.784624 0.0795922
4245 2 0.955448 0.697246 0.0851146
4266 2 0.860441 0.662104 0.0934798
4366 2 0.852044 0.654193 0.0770179
4371 2 0.898913 0.773709 0.0798242
2401 1 0.194884 0.988646 0.0676682
2421 1 0.18839 0.921686 0.0696435
2541 1 0.195215 0.819008 0.0740379
4276 2 0.177004 0.827647 0.0873772
4280 2 0.168657 0.939697 0.0815171
4296 2 0.12131 0.884727 0.0860287
4626 2 0.0639715 0.917813 0.0761357
4646 2 0.139275 0.850363 0.0696591
4746 2 0.0046936 0.884611 0.0804144
4775 2 0.0868362 0.874364 0.0985632
4875 2 0.0141969 0.879152 0.0997377
2291 1 0.303185 0.812733 0.0717706
4171 2 0.213286 0.970538 0.0912247
4305 2 0.395566 0.929537 0.0805401
4321 2 0.326147 0.827213 0.0870131
4651 2 0.331142 0.990257 0.0804689
4671 2 0.247687 0.879213 0.0739882
4780 2 0.338506 0.992134 0.0981149
4800 2 0.276885 0.921591 0.0889889
2316 1 0.546804 0.804186 0.0705255
2426 1 0.432717 0.980899 0.0670519
2446 1 0.404378 0.9112 0.0682959
2566 1 0.413468 0.83168 0.0715701
4196 2 0.451962 0.973733 0.0887941
4301 2 0.404626 0.866911 0.0895315
4696 2 0.492688 0.86872 0.0705483
4700 2 0.552685 0.930657 0.0699131
4825 2 0.528065 0.924357 0.0881768
4346 2 0.576904 0.829762 0.0862399
2451 1 0.672022 0.982909 0.0681039
2471 1 0.647557 0.904002 0.0689447
2591 1 0.636919 0.822962 0.0682587
4326 2 0.66169 0.878408 0.0889313
4330 2 0.643417 0.94712 0.0817364
4721 2 0.732894 0.952668 0.0696117
4725 2 0.737377 0.863347 0.069112
4850 2 0.768076 0.930486 0.089742
4271 2 0.788831 0.892713 0.079659
4375 2 0.788298 0.801582 0.0857782
2396 1 0.957081 0.899161 0.0715203
2476 1 0.904536 0.982898 0.0670118
2616 1 0.852068 0.801938 0.0675115
4141 2 0.977179 0.811671 0.0802902
4726 2 0.985855 0.968214 0.0689172
4851 2 0.994631 0.984379 0.0969378
4871 2 0.985163 0.921942 0.0912983
4251 2 0.887488 0.893031 0.084508
4255 2 0.911647 0.935753 0.0908134
4351 2 0.87731 0.842436 0.0921645
4355 2 0.848677 0.914188 0.0766642
4855 2 0.0416902 0.00841017 0.102803
32 1 0.13913 0.132062 0.129057
2026 1 0.167701 0.13876 0.119764
2046 1 0.197491 0.0689845 0.116298
2050 1 0.169797 0.0680545 0.100764
2126 1 0.0931138 0.157779 0.107772
2146 1 0.127218 0.0377523 0.114797
2150 1 0.0949584 0.103836 0.116921
2226 1 0.0162932 0.113839 0.121576
2230 1 0.0233268 0.147269 0.108062
2246 1 0.0130584 0.0419925 0.116462
2250 1 0.0297926 0.0784416 0.103774
2902 2 0.195568 0.125475 0.13134
4610 2 0.00311006 0.195491 0.121394
4505 2 0.0702267 0.0163764 0.122452
2030 1 0.206645 0.131245 0.105147
57 1 0.386988 0.13099 0.12861
2151 1 0.32251 0.125301 0.115788
2155 1 0.287838 0.142233 0.102329
2171 1 0.26865 0.0686854 0.11497
2922 2 0.210884 0.00589428 0.132978
2075 1 0.387245 0.0712585 0.101457
4530 2 0.310203 0.0456271 0.128352
4801 2 0.498083 0.0278468 0.101625
2051 1 0.404171 0.135842 0.118826
2055 1 0.447675 0.128979 0.104671
2071 1 0.433428 0.0594935 0.11511
2176 1 0.565622 0.123883 0.117231
2180 1 0.538228 0.134017 0.100903
2196 1 0.50951 0.067214 0.117499
2200 1 0.569879 0.0627757 0.104565
2927 2 0.444267 0.117165 0.131478
4555 2 0.573114 0.00284369 0.120049
4826 2 0.741231 0.0314863 0.10112
82 1 0.634729 0.128977 0.12874
2076 1 0.645636 0.135595 0.119191
2080 1 0.701944 0.129665 0.107704
2096 1 0.682302 0.0579306 0.116096
2100 1 0.638469 0.0569764 0.103734
2201 1 0.784775 0.127708 0.119522
2205 1 0.771904 0.136731 0.104089
2221 1 0.754184 0.0570508 0.116859
2952 2 0.6873 0.118279 0.130943
2225 1 0.802473 0.0699068 0.102408
7 1 0.938501 0.158125 0.130011
107 1 0.843094 0.121789 0.130176
2001 1 0.964484 0.10665 0.104649
2005 1 0.919096 0.150212 0.102441
2021 1 0.943062 0.0369524 0.114544
2025 1 0.935583 0.104671 0.115935
2101 1 0.874711 0.130072 0.12374
2105 1 0.854695 0.154115 0.106387
2121 1 0.853017 0.0826512 0.111453
2125 1 0.88759 0.0315564 0.102344
2977 2 0.854167 0.104574 0.130142
1976 1 0.838353 0.0033786 0.110644
1980 1 0.886324 0.00646026 0.119439
4756 2 0.112823 0.250731 0.105891
4856 2 0.0139131 0.270111 0.107898
37 1 0.140381 0.367456 0.130449
1906 1 0.198197 0.219174 0.118551
1910 1 0.184798 0.217636 0.102082
2031 1 0.179618 0.339793 0.119972
2035 1 0.183453 0.348223 0.104693
2131 1 0.0919193 0.335873 0.117746
2135 1 0.0946464 0.333114 0.100498
2231 1 0.0148934 0.352661 0.116771
2235 1 0.0194094 0.34326 0.102686
4510 2 0.106513 0.235135 0.122844
4781 2 0.310968 0.235079 0.107095
62 1 0.379058 0.372071 0.127788
2156 1 0.298158 0.335879 0.117642
2160 1 0.29164 0.339133 0.100621
2907 2 0.206766 0.309514 0.130355
4535 2 0.291891 0.217564 0.122368
4806 2 0.572854 0.22015 0.106279
1931 1 0.422374 0.222556 0.117735
1935 1 0.411108 0.222053 0.101496
2056 1 0.41174 0.339284 0.119167
2060 1 0.415038 0.340773 0.103788
2181 1 0.545409 0.33445 0.1174
2185 1 0.539954 0.34387 0.100261
2932 2 0.448739 0.304831 0.130937
4560 2 0.529817 0.223636 0.121389
4831 2 0.779703 0.223865 0.106792
87 1 0.627513 0.372004 0.127691
1956 1 0.667099 0.221556 0.117716
2081 1 0.653919 0.348108 0.120183
2085 1 0.68142 0.308216 0.107498
2206 1 0.780544 0.330673 0.11737
2957 2 0.694443 0.305857 0.131129
4585 2 0.775105 0.228729 0.12272
12 1 0.925175 0.383854 0.129894
112 1 0.83026 0.371396 0.129355
1881 1 0.953236 0.235957 0.113789
1885 1 0.938494 0.213552 0.100208
1981 1 0.875785 0.218535 0.118758
1985 1 0.865864 0.232278 0.10152
2006 1 0.933791 0.307371 0.117856
2010 1 0.941033 0.368502 0.106597
2106 1 0.87223 0.367345 0.11704
2110 1 0.841837 0.339788 0.104026