ITEM: TIMESTEP
0
ITEM: NUMBER OF ATOMS
768
ITEM: BOX BOUNDS pp pp pp
-4.3111899999999997e-01 1.8968881000000000e+01
-4.3111899999999997e-01 1.8968881000000000e+01
-2.9254300000000000e-01 3.1207457000000002e+01
ITEM: ATOMS id type xs ys zs
1 2 0.105384 0.188546 0.0259565
257 1 0.0222226 0.0222226 0.00928708
385 1 0.106989 0.0646061 0.071668
17 2 0.354869 0.188546 0.0259565
273 1 0.271707 0.0222226 0.00928708
401 1 0.356474 0.0646061 0.071668
513 1 0.229324 0.0646061 0.071668
641 1 0.229324 0.18694 0.071668
289 1 0.521192 0.0222226 0.00928708
529 1 0.478808 0.0646061 0.071668
657 1 0.478808 0.18694 0.071668
33 2 0.604353 0.188546 0.0259565
305 1 0.770676 0.0222226 0.00928708
417 1 0.605959 0.0646061 0.071668
545 1 0.728293 0.0646061 0.071668
673 1 0.728293 0.18694 0.071668
49 2 0.853838 0.188546 0.0259565
433 1 0.855443 0.0646061 0.071668
561 1 0.977777 0.0646061 0.071668
689 1 0.977777 0.18694 0.071668
261 1 0.0222226 0.271707 0.00928708
389 1 0.106989 0.314091 0.071668
277 1 0.271707 0.271707 0.00928708
405 1 0.356474 0.314091 0.071668
517 1 0.229324 0.314091 0.071668
293 1 0.521192 0.271707 0.00928708
533 1 0.478808 0.314091 0.071668
309 1 0.770676 0.271707 0.00928708
421 1 0.605959 0.314091 0.071668
549 1 0.728293 0.314091 0.071668
437 1 0.855443 0.314091 0.071668
565 1 0.977777 0.314091 0.071668
5 2 0.105384 0.43803 0.0259565
265 1 0.0222226 0.521192 0.00928708
393 1 0.106989 0.563575 0.071668
21 2 0.354869 0.43803 0.0259565
281 1 0.271707 0.521192 0.00928708
409 1 0.356474 0.563575 0.071668
521 1 0.229324 0.563575 0.071668
645 1 0.229324 0.436425 0.071668
297 1 0.521192 0.521192 0.00928708
537 1 0.478808 0.563575 0.071668
661 1 0.478808 0.436425 0.071668
37 2 0.604353 0.43803 0.0259565
313 1 0.770676 0.521192 0.00928708
425 1 0.605959 0.563575 0.071668
553 1 0.728293 0.563575 0.071668
677 1 0.728293 0.436425 0.071668
53 2 0.853838 0.43803 0.0259565
441 1 0.855443 0.563575 0.071668
569 1 0.977777 0.563575 0.071668
693 1 0.977777 0.436425 0.071668
9 2 0.105384 0.687515 0.0259565
269 1 0.0222226 0.770676 0.00928708
25 2 0.354869 0.687515 0.0259565
285 1 0.271707 0.770676 0.00928708
649 1 0.229324 0.685909 0.071668
301 1 0.521192 0.770676 0.00928708
665 1 0.478808 0.685909 0.071668
41 2 0.604353 0.687515 0.0259565
317 1 0.770676 0.770676 0.00928708
681 1 0.728293 0.685909 0.071668
57 2 0.853838 0.687515 0.0259565
697 1 0.977777 0.685909 0.071668
13 2 0.105384 0.936999 0.0259565
397 1 0.106989 0.81306 0.071668
29 2 0.354869 0.936999 0.0259565
413 1 0.356474 0.81306 0.071668
525 1 0.229324 0.81306 0.071668
653 1 0.229324 0.935394 0.071668
541 1 0.478808 0.81306 0.071668
669 1 0.478808 0.935394 0.071668
45 2 0.604353 0.936999 0.0259565
429 1 0.605959 0.81306 0.071668
557 1 0.728293 0.81306 0.071668
685 1 0.728293 0.935394 0.071668
61 2 0.853838 0.936999 0.0259565
445 1 0.855443 0.81306 0.071668
573 1 0.977777 0.81306 0.071668
701 1 0.977777 0.935394 0.071668
129 2 0.188546 0.105384 0.150718
193 2 0.105384 0.188546 0.11738
321 1 0.0222226 0.0222226 0.134049
705 1 0.0646061 0.106989 0.19643
209 2 0.354869 0.188546 0.11738
337 1 0.271707 0.0222226 0.134049
721 1 0.314091 0.106989 0.19643
145 2 0.43803 0.105384 0.150718
353 1 0.521192 0.0222226 0.134049
737 1 0.563575 0.106989 0.19643
161 2 0.687515 0.105384 0.150718
225 2 0.604353 0.188546 0.11738
369 1 0.770676 0.0222226 0.134049
177 2 0.936999 0.105384 0.150718
241 2 0.853838 0.188546 0.11738
753 1 0.81306 0.106989 0.19643
133 2 0.188546 0.354869 0.150718
325 1 0.0222226 0.271707 0.134049
449 1 0.18694 0.229324 0.19643
577 1 0.0646061 0.229324 0.19643
709 1 0.0646061 0.356474 0.19643
341 1 0.271707 0.271707 0.134049
593 1 0.314091 0.229324 0.19643
725 1 0.314091 0.356474 0.19643
149 2 0.43803 0.354869 0.150718
357 1 0.521192 0.271707 0.134049
465 1 0.436425 0.229324 0.19643
609 1 0.563575 0.229324 0.19643
741 1 0.563575 0.356474 0.19643
165 2 0.687515 0.354869 0.150718
373 1 0.770676 0.271707 0.134049
481 1 0.685909 0.229324 0.19643
181 2 0.936999 0.354869 0.150718
497 1 0.935394 0.229324 0.19643
625 1 0.81306 0.229324 0.19643
757 1 0.81306 0.356474 0.19643
197 2 0.105384 0.43803 0.11738
329 1 0.0222226 0.521192 0.134049
453 1 0.18694 0.478808 0.19643
581 1 0.0646061 0.478808 0.19643
213 2 0.354869 0.43803 0.11738
345 1 0.271707 0.521192 0.134049
597 1 0.314091 0.478808 0.19643
361 1 0.521192 0.521192 0.134049
469 1 0.436425 0.478808 0.19643
613 1 0.563575 0.478808 0.19643
229 2 0.604353 0.43803 0.11738
377 1 0.770676 0.521192 0.134049
485 1 0.685909 0.478808 0.19643
245 2 0.853838 0.43803 0.11738
501 1 0.935394 0.478808 0.19643
629 1 0.81306 0.478808 0.19643
137 2 0.188546 0.604353 0.150718
201 2 0.105384 0.687515 0.11738
333 1 0.0222226 0.770676 0.134049
457 1 0.18694 0.728293 0.19643
585 1 0.0646061 0.728293 0.19643
713 1 0.0646061 0.605959 0.19643
217 2 0.354869 0.687515 0.11738
349 1 0.271707 0.770676 0.134049
601 1 0.314091 0.728293 0.19643
729 1 0.314091 0.605959 0.19643
153 2 0.43803 0.604353 0.150718
365 1 0.521192 0.770676 0.134049
473 1 0.436425 0.728293 0.19643
617 1 0.563575 0.728293 0.19643
745 1 0.563575 0.605959 0.19643
169 2 0.687515 0.604353 0.150718
233 2 0.604353 0.687515 0.11738
381 1 0.770676 0.770676 0.134049
489 1 0.685909 0.728293 0.19643
185 2 0.936999 0.604353 0.150718
249 2 0.853838 0.687515 0.11738
505 1 0.935394 0.728293 0.19643
633 1 0.81306 0.728293 0.19643
761 1 0.81306 0.605959 0.19643
141 2 0.188546 0.853838 0.150718
205 2 0.105384 0.936999 0.11738
461 1 0.18694 0.977777 0.19643
589 1 0.0646061 0.977777 0.19643
717 1 0.0646061 0.855443 0.19643
221 2 0.354869 0.936999 0.11738
605 1 0.314091 0.977777 0.19643
733 1 0.314091 0.855443 0.19643
157 2 0.43803 0.853838 0.150718
477 1 0.436425 0.977777 0.19643
621 1 0.563575 0.977777 0.19643
749 1 0.563575 0.855443 0.19643
173 2 0.687515 0.853838 0.150718
237 2 0.604353 0.936999 0.11738
493 1 0.685909 0.977777 0.19643
189 2 0.936999 0.853838 0.150718
253 2 0.853838 0.936999 0.11738
509 1 0.935394 0.977777 0.19643
637 1 0.81306 0.977777 0.19643
765 1 0.81306 0.855443 0.19643
2 2 0.105384 0.188546 0.27548
65 2 0.188546 0.105384 0.242141
258 1 0.0222226 0.0222226 0.258811
386 1 0.106989 0.0646061 0.321192
18 2 0.354869 0.188546 0.27548
274 1 0.271707 0.0222226 0.258811
402 1 0.356474 0.0646061 0.321192
514 1 0.229324 0.0646061 0.321192
642 1 0.229324 0.18694 0.321192
81 2 0.43803 0.105384 0.242141
290 1 0.521192 0.0222226 0.258811
530 1 0.478808 0.0646061 0.321192
658 1 0.478808 0.18694 0.321192
34 2 0.604353 0.188546 0.27548
97 2 0.687515 0.105384 0.242141
306 1 0.770676 0.0222226 0.258811
418 1 0.605959 0.0646061 0.321192
546 1 0.728293 0.0646061 0.321192
674 1 0.728293 0.18694 0.321192
50 2 0.853838 0.188546 0.27548
113 2 0.936999 0.105384 0.242141
434 1 0.855443 0.0646061 0.321192
562 1 0.977777 0.0646061 0.321192
690 1 0.977777 0.18694 0.321192
69 2 0.188546 0.354869 0.242141
262 1 0.0222226 0.271707 0.258811
390 1 0.106989 0.314091 0.321192
278 1 0.271707 0.271707 0.258811
406 1 0.356474 0.314091 0.321192
518 1 0.229324 0.314091 0.321192
85 2 0.43803 0.354869 0.242141
294 1 0.521192 0.271707 0.258811
534 1 0.478808 0.314091 0.321192
101 2 0.687515 0.354869 0.242141
310 1 0.770676 0.271707 0.258811
422 1 0.605959 0.314091 0.321192
550 1 0.728293 0.314091 0.321192
117 2 0.936999 0.354869 0.242141
438 1 0.855443 0.314091 0.321192
566 1 0.977777 0.314091 0.321192
6 2 0.105384 0.43803 0.27548
266 1 0.0222226 0.521192 0.258811
394 1 0.106989 0.563575 0.321192
22 2 0.354869 0.43803 0.27548
282 1 0.271707 0.521192 0.258811
410 1 0.356474 0.563575 0.321192
522 1 0.229324 0.563575 0.321192
646 1 0.229324 0.436425 0.321192
298 1 0.521192 0.521192 0.258811
538 1 0.478808 0.563575 0.321192
662 1 0.478808 0.436425 0.321192
38 2 0.604353 0.43803 0.27548
314 1 0.770676 0.521192 0.258811
426 1 0.605959 0.563575 0.321192
554 1 0.728293 0.563575 0.321192
678 1 0.728293 0.436425 0.321192
54 2 0.853838 0.43803 0.27548
442 1 0.855443 0.563575 0.321192
570 1 0.977777 0.563575 0.321192
694 1 0.977777 0.436425 0.321192
10 2 0.105384 0.687515 0.27548
73 2 0.188546 0.604353 0.242141
270 1 0.0222226 0.770676 0.258811
26 2 0.354869 0.687515 0.27548
286 1 0.271707 0.770676 0.258811
650 1 0.229324 0.685909 0.321192
89 2 0.43803 0.604353 0.242141
302 1 0.521192 0.770676 0.258811
666 1 0.478808 0.685909 0.321192
42 2 0.604353 0.687515 0.27548
105 2 0.687515 0.604353 0.242141
318 1 0.770676 0.770676 0.258811
682 1 0.728293 0.685909 0.321192
58 2 0.853838 0.687515 0.27548
121 2 0.936999 0.604353 0.242141
698 1 0.977777 0.685909 0.321192
14 2 0.105384 0.936999 0.27548
77 2 0.188546 0.853838 0.242141
398 1 0.106989 0.81306 0.321192
30 2 0.354869 0.936999 0.27548
414 1 0.356474 0.81306 0.321192
526 1 0.229324 0.81306 0.321192
654 1 0.229324 0.935394 0.321192
93 2 0.43803 0.853838 0.242141
542 1 0.478808 0.81306 0.321192
670 1 0.478808 0.935394 0.321192
46 2 0.604353 0.936999 0.27548
109 2 0.687515 0.853838 0.242141
430 1 0.605959 0.81306 0.321192
558 1 0.728293 0.81306 0.321192
686 1 0.728293 0.935394 0.321192
62 2 0.853838 0.936999 0.27548
125 2 0.936999 0.853838 0.242141
446 1 0.855443 0.81306 0.321192
574 1 0.977777 0.81306 0.321192
702 1 0.977777 0.935394 0.321192
130 2 0.188546 0.105384 0.400242
194 2 0.105384 0.188546 0.366903
322 1 0.0222226 0.0222226 0.383573
210 2 0.354869 0.188546 0.366903
338 1 0.271707 0.0222226 0.383573
146 2 0.43803 0.105384 0.400242
354 1 0.521192 0.0222226 0.383573
162 2 0.687515 0.105384 0.400242
226 2 0.604353 0.188546 0.366903
370 1 0.770676 0.0222226 0.383573
178 2 0.936999 0.105384 0.400242
242 2 0.853838 0.188546 0.366903
134 2 0.188546 0.354869 0.400242
326 1 0.0222226 0.271707 0.383573
342 1 0.271707 0.271707 0.383573
150 2 0.43803 0.354869 0.400242
358 1 0.521192 0.271707 0.383573
166 2 0.687515 0.354869 0.400242
374 1 0.770676 0.271707 0.383573
182 2 0.936999 0.354869 0.400242
198 2 0.105384 0.43803 0.366903
330 1 0.0222226 0.521192 0.383573
214 2 0.354869 0.43803 0.366903
346 1 0.271707 0.521192 0.383573
362 1 0.521192 0.521192 0.383573
230 2 0.604353 0.43803 0.366903
378 1 0.770676 0.521192 0.383573
246 2 0.853838 0.43803 0.366903
138 2 0.188546 0.604353 0.400242
202 2 0.105384 0.687515 0.366903
334 1 0.0222226 0.770676 0.383573
218 2 0.354869 0.687515 0.366903
350 1 0.271707 0.770676 0.383573
154 2 0.43803 0.604353 0.400242
366 1 0.521192 0.770676 0.383573
170 2 0.687515 0.604353 0.400242
234 2 0.604353 0.687515 0.366903
382 1 0.770676 0.770676 0.383573
186 2 0.936999 0.604353 0.400242
250 2 0.853838 0.687515 0.366903
142 2 0.188546 0.853838 0.400242
206 2 0.105384 0.936999 0.366903
222 2 0.354869 0.936999 0.366903
158 2 0.43803 0.853838 0.400242
174 2 0.687515 0.853838 0.400242
238 2 0.604353 0.936999 0.366903
190 2 0.936999 0.853838 0.400242
254 2 0.853838 0.936999 0.366903
3 2 0.105384 0.188546 0.525004
66 2 0.188546 0.105384 0.491665
259 1 0.0222226 0.0222226 0.508335
706 1 0.0646061 0.106989 0.445954
19 2 0.354869 0.188546 0.525004
275 1 0.271707 0.0222226 0.508335
722 1 0.314091 0.106989 0.445954
82 2 0.43803 0.105384 0.491665
291 1 0.521192 0.0222226 0.508335
738 1 0.563575 0.106989 0.445954
35 2 0.604353 0.188546 0.525004
98 2 0.687515 0.105384 0.491665
307 1 0.770676 0.0222226 0.508335
51 2 0.853838 0.188546 0.525004
114 2 0.936999 0.105384 0.491665
754 1 0.81306 0.106989 0.445954
70 2 0.188546 0.354869 0.491665
263 1 0.0222226 0.271707 0.508335
450 1 0.18694 0.229324 0.445954
578 1 0.0646061 0.229324 0.445954
710 1 0.0646061 0.356474 0.445954
279 1 0.271707 0.271707 0.508335
594 1 0.314091 0.229324 0.445954
726 1 0.314091 0.356474 0.445954
86 2 0.43803 0.354869 0.491665
295 1 0.521192 0.271707 0.508335
466 1 0.436425 0.229324 0.445954
610 1 0.563575 0.229324 0.445954
742 1 0.563575 0.356474 0.445954
102 2 0.687515 0.354869 0.491665
311 1 0.770676 0.271707 0.508335
482 1 0.685909 0.229324 0.445954
118 2 0.936999 0.354869 0.491665
498 1 0.935394 0.229324 0.445954
626 1 0.81306 0.229324 0.445954
758 1 0.81306 0.356474 0.445954
7 2 0.105384 0.43803 0.525004
267 1 0.0222226 0.521192 0.508335
454 1 0.18694 0.478808 0.445954
582 1 0.0646061 0.478808 0.445954
23 2 0.354869 0.43803 0.525004
283 1 0.271707 0.521192 0.508335
598 1 0.314091 0.478808 0.445954
299 1 0.521192 0.521192 0.508335
470 1 0.436425 0.478808 0.445954
614 1 0.563575 0.478808 0.445954
39 2 0.604353 0.43803 0.525004
315 1 0.770676 0.521192 0.508335
486 1 0.685909 0.478808 0.445954
55 2 0.853838 0.43803 0.525004
502 1 0.935394 0.478808 0.445954
630 1 0.81306 0.478808 0.445954
11 2 0.105384 0.687515 0.525004
74 2 0.188546 0.604353 0.491665
271 1 0.0222226 0.770676 0.508335
458 1 0.18694 0.728293 0.445954
586 1 0.0646061 0.728293 0.445954
714 1 0.0646061 0.605959 0.445954
27 2 0.354869 0.687515 0.525004
287 1 0.271707 0.770676 0.508335
602 1 0.314091 0.728293 0.445954
730 1 0.314091 0.605959 0.445954
90 2 0.43803 0.604353 0.491665
303 1 0.521192 0.770676 0.508335
474 1 0.436425 0.728293 0.445954
618 1 0.563575 0.728293 0.445954
746 1 0.563575 0.605959 0.445954
43 2 0.604353 0.687515 0.525004
106 2 0.687515 0.604353 0.491665
319 1 0.770676 0.770676 0.508335
490 1 0.685909 0.728293 0.445954
59 2 0.853838 0.687515 0.525004
122 2 0.936999 0.604353 0.491665
506 1 0.935394 0.728293 0.445954
634 1 0.81306 0.728293 0.445954
762 1 0.81306 0.605959 0.445954
15 2 0.105384 0.936999 0.525004
78 2 0.188546 0.853838 0.491665
462 1 0.18694 0.977777 0.445954
590 1 0.0646061 0.977777 0.445954
718 1 0.0646061 0.855443 0.445954
31 2 0.354869 0.936999 0.525004
606 1 0.314091 0.977777 0.445954
734 1 0.314091 0.855443 0.445954
94 2 0.43803 0.853838 0.491665
478 1 0.436425 0.977777 0.445954
622 1 0.563575 0.977777 0.445954
750 1 0.563575 0.855443 0.445954
47 2 0.604353 0.936999 0.525004
110 2 0.687515 0.853838 0.491665
494 1 0.685909 0.977777 0.445954
63 2 0.853838 0.936999 0.525004
126 2 0.936999 0.853838 0.491665
510 1 0.935394 0.977777 0.445954
638 1 0.81306 0.977777 0.445954
766 1 0.81306 0.855443 0.445954
131 2 0.188546 0.105384 0.649766
195 2 0.105384 0.188546 0.616427
323 1 0.0222226 0.0222226 0.633097
387 1 0.106989 0.0646061 0.570716
211 2 0.354869 0.188546 0.616427
339 1 0.271707 0.0222226 0.633097
403 1 0.356474 0.0646061 0.570716
515 1 0.229324 0.0646061 0.570716
643 1 0.229324 0.18694 0.570716
147 2 0.43803 0.105384 0.649766
355 1 0.521192 0.0222226 0.633097
531 1 0.478808 0.0646061 0.570716
659 1 0.478808 0.18694 0.570716
163 2 0.687515 0.105384 0.649766
227 2 0.604353 0.188546 0.616427
371 1 0.770676 0.0222226 0.633097
419 1 0.605959 0.0646061 0.570716
547 1 0.728293 0.0646061 0.570716
675 1 0.728293 0.18694 0.570716
179 2 0.936999 0.105384 0.649766
243 2 0.853838 0.188546 0.616427
435 1 0.855443 0.0646061 0.570716
563 1 0.977777 0.0646061 0.570716
691 1 0.977777 0.18694 0.570716
135 2 0.188546 0.354869 0.649766
327 1 0.0222226 0.271707 0.633097
391 1 0.106989 0.314091 0.570716
343 1 0.271707 0.271707 0.633097
407 1 0.356474 0.314091 0.570716
519 1 0.229324 0.314091 0.570716
151 2 0.43803 0.354869 0.649766
359 1 0.521192 0.271707 0.633097
535 1 0.478808 0.314091 0.570716
167 2 0.687515 0.354869 0.649766
375 1 0.770676 0.271707 0.633097
423 1 0.605959 0.314091 0.570716
551 1 0.728293 0.314091 0.570716
183 2 0.936999 0.354869 0.649766
439 1 0.855443 0.314091 0.570716
567 1 0.977777 0.314091 0.570716
199 2 0.105384 0.43803 0.616427
331 1 0.0222226 0.521192 0.633097
395 1 0.106989 0.563575 0.570716
215 2 0.354869 0.43803 0.616427
347 1 0.271707 0.521192 0.633097
411 1 0.356474 0.563575 0.570716
523 1 0.229324 0.563575 0.570716
647 1 0.229324 0.436425 0.570716
363 1 0.521192 0.521192 0.633097
539 1 0.478808 0.563575 0.570716
663 1 0.478808 0.436425 0.570716
231 2 0.604353 0.43803 0.616427
379 1 0.770676 0.521192 0.633097
427 1 0.605959 0.563575 0.570716
555 1 0.728293 0.563575 0.570716
679 1 0.728293 0.436425 0.570716
247 2 0.853838 0.43803 0.616427
443 1 0.855443 0.563575 0.570716
571 1 0.977777 0.563575 0.570716
695 1 0.977777 0.436425 0.570716
139 2 0.188546 0.604353 0.649766
203 2 0.105384 0.687515 0.616427
335 1 0.0222226 0.770676 0.633097
219 2 0.354869 0.687515 0.616427
351 1 0.271707 0.770676 0.633097
651 1 0.229324 0.685909 0.570716
155 2 0.43803 0.604353 0.649766
367 1 0.521192 0.770676 0.633097
667 1 0.478808 0.685909 0.570716
171 2 0.687515 0.604353 0.649766
235 2 0.604353 0.687515 0.616427
383 1 0.770676 0.770676 0.633097
683 1 0.728293 0.685909 0.570716
187 2 0.936999 0.604353 0.649766
251 2 0.853838 0.687515 0.616427
699 1 0.977777 0.685909 0.570716
143 2 0.188546 0.853838 0.649766
207 2 0.105384 0.936999 0.616427
399 1 0.106989 0.81306 0.570716
223 2 0.354869 0.936999 0.616427
415 1 0.356474 0.81306 0.570716
527 1 0.229324 0.81306 0.570716
655 1 0.229324 0.935394 0.570716
159 2 0.43803 0.853838 0.649766
543 1 0.478808 0.81306 0.570716
671 1 0.478808 0.935394 0.570716
175 2 0.687515 0.853838 0.649766
239 2 0.604353 0.936999 0.616427
431 1 0.605959 0.81306 0.570716
559 1 0.728293 0.81306 0.570716
687 1 0.728293 0.935394 0.570716
191 2 0.936999 0.853838 0.649766
255 2 0.853838 0.936999 0.616427
447 1 0.855443 0.81306 0.570716
575 1 0.977777 0.81306 0.570716
703 1 0.977777 0.935394 0.570716
4 2 0.105384 0.188546 0.774528
67 2 0.188546 0.105384 0.741189
260 1 0.0222226 0.0222226 0.757859
707 1 0.0646061 0.106989 0.695478
20 2 0.354869 0.188546 0.774528
276 1 0.271707 0.0222226 0.757859
723 1 0.314091 0.106989 0.695478
83 2 0.43803 0.105384 0.741189
292 1 0.521192 0.0222226 0.757859
739 1 0.563575 0.106989 0.695478
36 2 0.604353 0.188546 0.774528
99 2 0.687515 0.105384 0.741189
308 1 0.770676 0.0222226 0.757859
52 2 0.853838 0.188546 0.774528
115 2 0.936999 0.105384 0.741189
755 1 0.81306 0.106989 0.695478
71 2 0.188546 0.354869 0.741189
264 1 0.0222226 0.271707 0.757859
451 1 0.18694 0.229324 0.695478
579 1 0.0646061 0.229324 0.695478
711 1 0.0646061 0.356474 0.695478
280 1 0.271707 0.271707 0.757859
595 1 0.314091 0.229324 0.695478
727 1 0.314091 0.356474 0.695478
87 2 0.43803 0.354869 0.741189
296 1 0.521192 0.271707 0.757859
467 1 0.436425 0.229324 0.695478
611 1 0.563575 0.229324 0.695478
743 1 0.563575 0.356474 0.695478
103 2 0.687515 0.354869 0.741189
312 1 0.770676 0.271707 0.757859
483 1 0.685909 0.229324 0.695478
119 2 0.936999 0.354869 0.741189
499 1 0.935394 0.229324 0.695478
627 1 0.81306 0.229324 0.695478
759 1 0.81306 0.356474 0.695478
8 2 0.105384 0.43803 0.774528
268 1 0.0222226 0.521192 0.757859
455 1 0.18694 0.478808 0.695478
583 1 0.0646061 0.478808 0.695478
24 2 0.354869 0.43803 0.774528
284 1 0.271707 0.521192 0.757859
599 1 0.314091 0.478808 0.695478
300 1 0.521192 0.521192 0.757859
471 1 0.436425 0.478808 0.695478
615 1 0.563575 0.478808 0.695478
40 2 0.604353 0.43803 0.774528
316 1 0.770676 0.521192 0.757859
487 1 0.685909 0.478808 0.695478
56 2 0.853838 0.43803 0.774528
503 1 0.935394 0.478808 0.695478
631 1 0.81306 0.478808 0.695478
12 2 0.105384 0.687515 0.774528
75 2 0.188546 0.604353 0.741189
272 1 0.0222226 0.770676 0.757859
459 1 0.18694 0.728293 0.695478
587 1 0.0646061 0.728293 0.695478
715 1 0.0646061 0.605959 0.695478
28 2 0.354869 0.687515 0.774528
288 1 0.271707 0.770676 0.757859
603 1 0.314091 0.728293 0.695478
731 1 0.314091 0.605959 0.695478
91 2 0.43803 0.604353 0.741189
304 1 0.521192 0.770676 0.757859
475 1 0.436425 0.728293 0.695478
619 1 0.563575 0.728293 0.695478
747 1 0.563575 0.605959 0.695478
44 2 0.604353 0.687515 0.774528
107 2 0.687515 0.604353 0.741189
320 1 0.770676 0.770676 0.757859
491 1 0.685909 0.728293 0.695478
60 2 0.853838 0.687515 0.774528
123 2 0.936999 0.604353 0.741189
507 1 0.935394 0.728293 0.695478
635 1 0.81306 0.728293 0.695478
763 1 0.81306 0.605959 0.695478
16 2 0.105384 0.936999 0.774528
79 2 0.188546 0.853838 0.741189
463 1 0.18694 0.977777 0.695478
591 1 0.0646061 0.977777 0.695478
719 1 0.0646061 0.855443 0.695478
32 2 0.354869 0.936999 0.774528
607 1 0.314091 0.977777 0.695478
735 1 0.314091 0.855443 0.695478
95 2 0.43803 0.853838 0.741189
479 1 0.436425 0.977777 0.695478
623 1 0.563575 0.977777 0.695478
751 1 0.563575 0.855443 0.695478
48 2 0.604353 0.936999 0.774528
111 2 0.687515 0.853838 0.741189
495 1 0.685909 0.977777 0.695478
64 2 0.853838 0.936999 0.774528
127 2 0.936999 0.853838 0.741189
511 1 0.935394 0.977777 0.695478
639 1 0.81306 0.977777 0.695478
767 1 0.81306 0.855443 0.695478
196 2 0.105384 0.188546 0.865951
324 1 0.0222226 0.0222226 0.88262
388 1 0.106989 0.0646061 0.820239
212 2 0.354869 0.188546 0.865951
340 1 0.271707 0.0222226 0.88262
404 1 0.356474 0.0646061 0.820239
516 1 0.229324 0.0646061 0.820239
644 1 0.229324 0.18694 0.820239
356 1 0.521192 0.0222226 0.88262
532 1 0.478808 0.0646061 0.820239
660 1 0.478808 0.18694 0.820239
228 2 0.604353 0.188546 0.865951
372 1 0.770676 0.0222226 0.88262
420 1 0.605959 0.0646061 0.820239
548 1 0.728293 0.0646061 0.820239
676 1 0.728293 0.18694 0.820239
244 2 0.853838 0.188546 0.865951
436 1 0.855443 0.0646061 0.820239
564 1 0.977777 0.0646061 0.820239
692 1 0.977777 0.18694 0.820239
328 1 0.0222226 0.271707 0.88262
392 1 0.106989 0.314091 0.820239
344 1 0.271707 0.271707 0.88262
408 1 0.356474 0.314091 0.820239
520 1 0.229324 0.314091 0.820239
360 1 0.521192 0.271707 0.88262
536 1 0.478808 0.314091 0.820239
376 1 0.770676 0.271707 0.88262
424 1 0.605959 0.314091 0.820239
552 1 0.728293 0.314091 0.820239
440 1 0.855443 0.314091 0.820239
568 1 0.977777 0.314091 0.820239
200 2 0.105384 0.43803 0.865951
332 1 0.0222226 0.521192 0.88262
396 1 0.106989 0.563575 0.820239
216 2 0.354869 0.43803 0.865951
348 1 0.271707 0.521192 0.88262
412 1 0.356474 0.563575 0.820239
524 1 0.229324 0.563575 0.820239
648 1 0.229324 0.436425 0.820239
364 1 0.521192 0.521192 0.88262
540 1 0.478808 0.563575 0.820239
664 1 0.478808 0.436425 0.820239
232 2 0.604353 0.43803 0.865951
380 1 0.770676 0.521192 0.88262
428 1 0.605959 0.563575 0.820239
556 1 0.728293 0.563575 0.820239
680 1 0.728293 0.436425 0.820239
248 2 0.853838 0.43803 0.865951
444 1 0.855443 0.563575 0.820239
572 1 0.977777 0.563575 0.820239
696 1 0.977777 0.436425 0.820239
204 2 0.105384 0.687515 0.865951
336 1 0.0222226 0.770676 0.88262
220 2 0.354869 0.687515 0.865951
352 1 0.271707 0.770676 0.88262
652 1 0.229324 0.685909 0.820239
368 1 0.521192 0.770676 0.88262
668 1 0.478808 0.685909 0.820239
236 2 0.604353 0.687515 0.865951
384 1 0.770676 0.770676 0.88262
684 1 0.728293 0.685909 0.820239
252 2 0.853838 0.687515 0.865951
700 1 0.977777 0.685909 0.820239
208 2 0.105384 0.936999 0.865951
400 1 0.106989 0.81306 0.820239
224 2 0.354869 0.936999 0.865951
416 1 0.356474 0.81306 0.820239
528 1 0.229324 0.81306 0.820239
656 1 0.229324 0.935394 0.820239
544 1 0.478808 0.81306 0.820239
672 1 0.478808 0.935394 0.820239
240 2 0.604353 0.936999 0.865951
432 1 0.605959 0.81306 0.820239
560 1 0.728293 0.81306 0.820239
688 1 0.728293 0.935394 0.820239
256 2 0.853838 0.936999 0.865951
448 1 0.855443 0.81306 0.820239
576 1 0.977777 0.81306 0.820239
704 1 0.977777 0.935394 0.820239
68 2 0.188546 0.105384 0.990713
132 2 0.188546 0.105384 0.89929
708 1 0.0646061 0.106989 0.945001
724 1 0.314091 0.106989 0.945001
84 2 0.43803 0.105384 0.990713
148 2 0.43803 0.105384 0.89929
740 1 0.563575 0.106989 0.945001
100 2 0.687515 0.105384 0.990713
164 2 0.687515 0.105384 0.89929
116 2 0.936999 0.105384 0.990713
180 2 0.936999 0.105384 0.89929
756 1 0.81306 0.106989 0.945001
72 2 0.188546 0.354869 0.990713
136 2 0.188546 0.354869 0.89929
452 1 0.18694 0.229324 0.945001
580 1 0.0646061 0.229324 0.945001
712 1 0.0646061 0.356474 0.945001
596 1 0.314091 0.229324 0.945001
728 1 0.314091 0.356474 0.945001
88 2 0.43803 0.354869 0.990713
152 2 0.43803 0.354869 0.89929
468 1 0.436425 0.229324 0.945001
612 1 0.563575 0.229324 0.945001
744 1 0.563575 0.356474 0.945001
104 2 0.687515 0.354869 0.990713
168 2 0.687515 0.354869 0.89929
484 1 0.685909 0.229324 0.945001
120 2 0.936999 0.354869 0.990713
184 2 0.936999 0.354869 0.89929
500 1 0.935394 0.229324 0.945001
628 1 0.81306 0.229324 0.945001
760 1 0.81306 0.356474 0.945001
456 1 0.18694 0.478808 0.945001
584 1 0.0646061 0.478808 0.945001
600 1 0.314091 0.478808 0.945001
472 1 0.436425 0.478808 0.945001
616 1 0.563575 0.478808 0.945001
488 1 0.685909 0.478808 0.945001
504 1 0.935394 0.478808 0.945001
632 1 0.81306 0.478808 0.945001
76 2 0.188546 0.604353 0.990713
140 2 0.188546 0.604353 0.89929
460 1 0.18694 0.728293 0.945001
588 1 0.0646061 0.728293 0.945001
716 1 0.0646061 0.605959 0.945001
604 1 0.314091 0.728293 0.945001
732 1 0.314091 0.605959 0.945001
92 2 0.43803 0.604353 0.990713
156 2 0.43803 0.604353 0.89929
476 1 0.436425 0.728293 0.945001
620 1 0.563575 0.728293 0.945001
748 1 0.563575 0.605959 0.945001
108 2 0.687515 0.604353 0.990713
172 2 0.687515 0.604353 0.89929
492 1 0.685909 0.728293 0.945001
124 2 0.936999 0.604353 0.990713
188 2 0.936999 0.604353 0.89929
508 1 0.935394 0.728293 0.945001
636 1 0.81306 0.728293 0.945001
764 1 0.81306 0.605959 0.945001
80 2 0.188546 0.853838 0.990713
144 2 0.188546 0.853838 0.89929
464 1 0.18694 0.977777 0.945001
592 1 0.0646061 0.977777 0.945001
720 1 0.0646061 0.855443 0.945001
608 1 0.314091 0.977777 0.945001
736 1 0.314091 0.855443 0.945001
96 2 0.43803 0.853838 0.990713
160 2 0.43803 0.853838 0.89929
480 1 0.436425 0.977777 0.945001
624 1 0.563575 0.977777 0.945001
752 1 0.563575 0.855443 0.945001
112 2 0.687515 0.853838 0.990713
176 2 0.687515 0.853838 0.89929
496 1 0.685909 0.977777 0.945001
128 2 0.936999 0.853838 0.990713
192 2 0.936999 0.853838 0.89929
512 1 0.935394 0.977777 0.945001
640 1 0.81306 0.977777 0.945001
768 1 0.81306 0.855443 0.945001
ITEM: TIMESTEP
86
ITEM: NUMBER OF ATOMS
768
ITEM: BOX BOUNDS pp pp pp
-4.3111899999999997e-01 1.8968881000000000e+01
-4.3111899999999997e-01 1.8968881000000000e+01
-2.9254300000000000e-01 3.1207457000000002e+01
ITEM: ATOMS id type xs ys zs
1 2 0.0687618 0.18839 0.0639395
257 1 0.0189657 0.0154715 0.00874679
385 1 0.0886535 0.0526482 0.068567
17 2 0.311843 0.150135 0.0308245
273 1 0.26873 0.0115127 0.00379334
401 1 0.318064 0.0371854 0.0717356
513 1 0.198931 0.100075 0.0852381
641 1 0.206819 0.223798 0.0504453
289 1 0.524582 0.999145 0.992632
529 1 0.429149 0.0699297 0.0706404
657 1 0.433125 0.216929 0.0663769
33 2 0.55399 0.215846 0.0286233
305 1 0.763904 0.0167294 0.993806
417 1 0.557614 0.080054 0.0493571
545 1 0.695487 0.101463 0.0656733
673 1 0.731982 0.230828 0.0965218
49 2 0.786372 0.152119 0.0115599
433 1 0.859286 0.036554 0.0483601
561 1 0.964971 0.0848182 0.0736648
689 1 0.93189 0.215119 0.073925
261 1 0.998919 0.271309 0.021091
389 1 0.0512858 0.358033 0.0712986
277 1 0.277557 0.32169 0.00487204
405 1 0.314074 0.264087 0.0798193
517 1 0.198298 0.331269 0.0857644
293 1 0.53575 0.245346 0.995067
533 1 0.428293 0.342646 0.0634663
309 1 0.780897 0.295122 0.975262
421 1 0.62816 0.287606 0.0727825
549 1 0.74718 0.352724 0.0749749
437 1 0.824792 0.26553 0.0510985
565 1 0.925101 0.34192 0.0769186
5 2 0.118572 0.475391 0.0305256
265 1 0.0515611 0.546076 0.999396
393 1 0.0968437 0.592689 0.0718898
21 2 0.372945 0.432706 0.988895
281 1 0.278197 0.529078 0.967569
409 1 0.31992 0.598577 0.0601214
521 1 0.213334 0.604468 0.0952206
645 1 0.256473 0.496286 0.0424818
297 1 0.503269 0.520486 0.00853463
537 1 0.443093 0.628656 0.0863588
661 1 0.413659 0.507577 0.0598543
37 2 0.524748 0.382304 0.0143475
313 1 0.796896 0.535387 0.997911
425 1 0.59914 0.529159 0.0577797
553 1 0.675437 0.666682 0.0736279
677 1 0.735244 0.507132 0.0718336
53 2 0.838327 0.405424 0.0224506
441 1 0.86059 0.542676 0.062073
569 1 0.977256 0.57876 0.061804
693 1 0.962912 0.458286 0.068649
9 2 0.0446359 0.675704 0.0178357
269 1 0.0226035 0.758455 0.0352587
25 2 0.384639 0.735011 0.0556449
285 1 0.280108 0.836231 0.99003
649 1 0.248881 0.728154 0.0707385
301 1 0.522624 0.760849 0.00130909
665 1 0.511775 0.750054 0.0823862
41 2 0.543444 0.651511 0.0285197
317 1 0.787882 0.787127 0.0129784
681 1 0.725821 0.745576 0.0844167
57 2 0.802399 0.669752 0.0330778
697 1 0.927153 0.700814 0.0596239
13 2 0.148233 0.943303 0.019515
397 1 0.0607118 0.860495 0.0753545
29 2 0.394281 0.970165 0.016388
413 1 0.30638 0.829099 0.0941041
525 1 0.180092 0.843758 0.0877222
653 1 0.262806 0.932679 0.0697225
541 1 0.446272 0.857063 0.0570457
669 1 0.518756 0.96423 0.0660662
45 2 0.64548 0.94875 0.014113
429 1 0.569012 0.848931 0.0512346
557 1 0.72985 0.860067 0.0558326
685 1 0.748655 0.988792 0.0737495
61 2 0.847254 0.908907 0.0222793
445 1 0.847912 0.791745 0.0739632
573 1 0.937205 0.83395 0.0673734
701 1 0.95769 0.955936 0.0644647
129 2 0.182501 0.0704259 0.19695
193 2 0.174783 0.216663 0.139529
321 1 0.0139517 0.0106936 0.12695
705 1 0.0498788 0.0661018 0.192203
209 2 0.317336 0.131339 0.129445
337 1 0.276965 0.00212737 0.134367
721 1 0.350531 0.0194821 0.191026
145 2 0.471366 0.0780912 0.161139
353 1 0.566207 0.0391875 0.122662
737 1 0.586759 0.101016 0.20184
161 2 0.698434 0.0527531 0.151726
225 2 0.603726 0.164958 0.112968
369 1 0.840607 0.012732 0.129199
177 2 0.981526 0.14959 0.147206
241 2 0.828906 0.13442 0.102826
753 1 0.80268 0.0803831 0.195595
133 2 0.227927 0.347302 0.180361
325 1 0.00359026 0.276088 0.125043
449 1 0.270638 0.223088 0.183723
577 1 0.0786157 0.194314 0.196819
709 1 0.0881992 0.314722 0.179458
341 1 0.272785 0.336376 0.147218
593 1 0.399815 0.183419 0.18586
725 1 0.366915 0.298849 0.200748
149 2 0.473152 0.376578 0.157734
357 1 0.597457 0.322744 0.148892
465 1 0.508785 0.244851 0.147134
609 1 0.587474 0.106428 0.213484
741 1 0.618518 0.222034 0.193118
165 2 0.729097 0.347602 0.171426
373 1 0.823639 0.305232 0.129013
481 1 0.761002 0.195856 0.168291
181 2 0.990749 0.404882 0.144989
497 1 0.969429 0.262189 0.201992
625 1 0.880791 0.160368 0.194936
757 1 0.833514 0.266149 0.206862
197 2 0.171059 0.456847 0.120368
329 1 0.039854 0.53023 0.123594
453 1 0.2491 0.473174 0.237919
581 1 0.102445 0.401513 0.194254
213 2 0.318783 0.398428 0.0852395
345 1 0.276509 0.533846 0.120685
597 1 0.337017 0.426995 0.189778
361 1 0.54298 0.510486 0.135909
469 1 0.499352 0.482259 0.205572
613 1 0.61162 0.413372 0.199243
229 2 0.633133 0.410415 0.0944582
377 1 0.823 0.529968 0.136351
485 1 0.764866 0.47319 0.207528
245 2 0.835262 0.436316 0.117956
501 1 0.99287 0.525896 0.190366