ITEM: TIMESTEP
0
ITEM: NUMBER OF ATOMS
768
ITEM: BOX BOUNDS pp pp pp
-4.3111899999999997e-01 1.8968881000000000e+01
-4.3111899999999997e-01 1.8968881000000000e+01
-2.9254300000000000e-01 3.1207457000000002e+01
ITEM: ATOMS id type xs ys zs
1 2 0.0687618 0.18839 0.0639395
257 1 0.0189657 0.0154715 0.00874679
385 1 0.0886535 0.0526482 0.068567
513 1 0.198931 0.100075 0.0852381
68 2 0.160645 0.103784 0.000521198
17 2 0.311843 0.150135 0.0308245
273 1 0.26873 0.0115127 0.00379334
401 1 0.318064 0.0371854 0.0717356
529 1 0.429149 0.0699297 0.0706404
417 1 0.557614 0.080054 0.0493571
545 1 0.695487 0.101463 0.0656733
49 2 0.786372 0.152119 0.0115599
433 1 0.859286 0.036554 0.0483601
561 1 0.964971 0.0848182 0.0736648
241 2 0.828906 0.13442 0.102826
389 1 0.0512858 0.358033 0.0712986
517 1 0.198298 0.331269 0.0857644
72 2 0.136557 0.317373 0.00893333
641 1 0.206819 0.223798 0.0504453
277 1 0.277557 0.32169 0.00487204
405 1 0.314074 0.264087 0.0798193
213 2 0.318783 0.398428 0.0852395
657 1 0.433125 0.216929 0.0663769
33 2 0.55399 0.215846 0.0286233
533 1 0.428293 0.342646 0.0634663
37 2 0.524748 0.382304 0.0143475
673 1 0.731982 0.230828 0.0965218
421 1 0.62816 0.287606 0.0727825
549 1 0.74718 0.352724 0.0749749
689 1 0.93189 0.215119 0.073925
261 1 0.998919 0.271309 0.021091
437 1 0.824792 0.26553 0.0510985
565 1 0.925101 0.34192 0.0769186
5 2 0.118572 0.475391 0.0305256
393 1 0.0968437 0.592689 0.0718898
409 1 0.31992 0.598577 0.0601214
645 1 0.256473 0.496286 0.0424818
297 1 0.503269 0.520486 0.00853463
661 1 0.413659 0.507577 0.0598543
425 1 0.59914 0.529159 0.0577797
677 1 0.735244 0.507132 0.0718336
229 2 0.633133 0.410415 0.0944582
53 2 0.838327 0.405424 0.0224506
441 1 0.86059 0.542676 0.062073
569 1 0.977256 0.57876 0.061804
693 1 0.962912 0.458286 0.068649
9 2 0.0446359 0.675704 0.0178357
269 1 0.0226035 0.758455 0.0352587
201 2 0.0925919 0.732277 0.106685
76 2 0.197203 0.621041 0.0117985
80 2 0.154173 0.787434 0.0163869
521 1 0.213334 0.604468 0.0952206
25 2 0.384639 0.735011 0.0556449
649 1 0.248881 0.728154 0.0707385
537 1 0.443093 0.628656 0.0863588
301 1 0.522624 0.760849 0.00130909
665 1 0.511775 0.750054 0.0823862
41 2 0.543444 0.651511 0.0285197
553 1 0.675437 0.666682 0.0736279
317 1 0.787882 0.787127 0.0129784
681 1 0.725821 0.745576 0.0844167
112 2 0.661349 0.768342 0.0035343
57 2 0.802399 0.669752 0.0330778
697 1 0.927153 0.700814 0.0596239
445 1 0.847912 0.791745 0.0739632
13 2 0.148233 0.943303 0.019515
397 1 0.0607118 0.860495 0.0753545
525 1 0.180092 0.843758 0.0877222
29 2 0.394281 0.970165 0.016388
413 1 0.30638 0.829099 0.0941041
653 1 0.262806 0.932679 0.0697225
541 1 0.446272 0.857063 0.0570457
669 1 0.518756 0.96423 0.0660662
429 1 0.569012 0.848931 0.0512346
45 2 0.64548 0.94875 0.014113
557 1 0.72985 0.860067 0.0558326
685 1 0.748655 0.988792 0.0737495
61 2 0.847254 0.908907 0.0222793
573 1 0.937205 0.83395 0.0673734
701 1 0.95769 0.955936 0.0644647
129 2 0.182501 0.0704259 0.19695
321 1 0.0139517 0.0106936 0.12695
705 1 0.0498788 0.0661018 0.192203
577 1 0.0786157 0.194314 0.196819
209 2 0.317336 0.131339 0.129445
337 1 0.276965 0.00212737 0.134367
721 1 0.350531 0.0194821 0.191026
593 1 0.399815 0.183419 0.18586
145 2 0.471366 0.0780912 0.161139
353 1 0.566207 0.0391875 0.122662
737 1 0.586759 0.101016 0.20184
609 1 0.587474 0.106428 0.213484
161 2 0.698434 0.0527531 0.151726
225 2 0.603726 0.164958 0.112968
481 1 0.761002 0.195856 0.168291
369 1 0.840607 0.012732 0.129199
177 2 0.981526 0.14959 0.147206
753 1 0.80268 0.0803831 0.195595
625 1 0.880791 0.160368 0.194936
193 2 0.174783 0.216663 0.139529
325 1 0.00359026 0.276088 0.125043
709 1 0.0881992 0.314722 0.179458
133 2 0.227927 0.347302 0.180361
449 1 0.270638 0.223088 0.183723
341 1 0.272785 0.336376 0.147218
725 1 0.366915 0.298849 0.200748
149 2 0.473152 0.376578 0.157734
357 1 0.597457 0.322744 0.148892
465 1 0.508785 0.244851 0.147134
741 1 0.618518 0.222034 0.193118
165 2 0.729097 0.347602 0.171426
373 1 0.823639 0.305232 0.129013
497 1 0.969429 0.262189 0.201992
757 1 0.833514 0.266149 0.206862
629 1 0.875603 0.350733 0.193625
197 2 0.171059 0.456847 0.120368
329 1 0.039854 0.53023 0.123594
581 1 0.102445 0.401513 0.194254
713 1 0.115125 0.5168 0.197056
345 1 0.276509 0.533846 0.120685
597 1 0.337017 0.426995 0.189778
729 1 0.310375 0.555996 0.195656
361 1 0.54298 0.510486 0.135909
469 1 0.499352 0.482259 0.205572
153 2 0.404706 0.513538 0.14054
745 1 0.565413 0.58571 0.199526
613 1 0.61162 0.413372 0.199243
485 1 0.764866 0.47319 0.207528
169 2 0.671035 0.528438 0.154815
181 2 0.990749 0.404882 0.144989
377 1 0.823 0.529968 0.136351
245 2 0.835262 0.436316 0.117956
501 1 0.99287 0.525896 0.190366
761 1 0.885877 0.471945 0.193674
137 2 0.169669 0.606821 0.144046
333 1 0.0618426 0.775772 0.141454
585 1 0.138893 0.702976 0.203163
505 1 0.00914704 0.712779 0.20278
217 2 0.323764 0.655274 0.135852
349 1 0.213677 0.729895 0.144382
601 1 0.354848 0.737908 0.214517
473 1 0.551755 0.728674 0.200586
233 2 0.566632 0.636454 0.123343
157 2 0.429396 0.785078 0.152086
89 2 0.442722 0.637187 0.203581
617 1 0.689012 0.664377 0.195689
489 1 0.739741 0.701916 0.200102
249 2 0.777446 0.643773 0.132427
173 2 0.65962 0.780092 0.152143
381 1 0.816109 0.737999 0.141297
185 2 0.935598 0.629057 0.137574
633 1 0.868498 0.715921 0.199492
189 2 0.933424 0.795161 0.146426
141 2 0.151811 0.833815 0.179917
205 2 0.149782 0.966152 0.118591
589 1 0.0655588 0.948347 0.183663
717 1 0.0300449 0.839425 0.216328
461 1 0.237322 0.935 0.190648
605 1 0.359954 0.900327 0.192306
733 1 0.291934 0.81254 0.170318
365 1 0.541811 0.837737 0.129956
221 2 0.403939 0.94415 0.115388
477 1 0.458421 0.948425 0.198339
621 1 0.580023 0.979602 0.186676
749 1 0.54239 0.852299 0.203678
237 2 0.637895 0.92178 0.112024
493 1 0.697871 0.912496 0.193452
253 2 0.798182 0.884893 0.126093
765 1 0.784926 0.819352 0.199897
509 1 0.945282 0.921246 0.180624
637 1 0.815175 0.957859 0.196604
2 2 0.150278 0.163163 0.278186
386 1 0.056055 0.0528779 0.297536
514 1 0.186035 0.0383496 0.287192
65 2 0.317417 0.129357 0.240376
402 1 0.288081 0.0779927 0.317724
81 2 0.478572 0.134451 0.251458
290 1 0.513859 0.0252086 0.247641
530 1 0.412731 0.097004 0.31191
418 1 0.537553 0.114316 0.325248
670 1 0.497798 0.00242002 0.32886
97 2 0.700978 0.0777719 0.243997
306 1 0.716476 0.0199148 0.242225
546 1 0.714635 0.182056 0.324633
686 1 0.674143 0.0419078 0.320343
50 2 0.820708 0.169825 0.270008
113 2 0.984024 0.145643 0.248334
434 1 0.804387 0.0303959 0.30825
562 1 0.930962 0.0802201 0.314076
69 2 0.139027 0.330966 0.260417
262 1 0.0231308 0.27159 0.290106
390 1 0.0493376 0.380669 0.330129
518 1 0.138157 0.391438 0.324908
18 2 0.392559 0.250438 0.292147
642 1 0.264952 0.208514 0.319088
278 1 0.271101 0.262172 0.254892
406 1 0.25065 0.344407 0.321647
85 2 0.411911 0.391272 0.252187
294 1 0.481391 0.25722 0.223966
422 1 0.520195 0.325978 0.293598
34 2 0.607969 0.226749 0.281575
674 1 0.726873 0.24713 0.321899
101 2 0.691411 0.378029 0.267292
310 1 0.725973 0.222888 0.244653
550 1 0.727175 0.399154 0.299734
690 1 0.916174 0.222955 0.320025
117 2 0.98919 0.386071 0.244605
438 1 0.812758 0.306803 0.27518
566 1 0.925314 0.351297 0.318892
6 2 0.0979612 0.493656 0.28399
266 1 0.0200697 0.532302 0.261984
522 1 0.144103 0.59625 0.332611
453 1 0.2491 0.473174 0.237919
22 2 0.372452 0.536336 0.2774
646 1 0.2333 0.492862 0.31217
534 1 0.423292 0.407505 0.302968
298 1 0.518899 0.54438 0.270153
38 2 0.541744 0.461167 0.283023
678 1 0.733625 0.532942 0.328371
105 2 0.66684 0.553256 0.251355
314 1 0.804522 0.558092 0.266585
54 2 0.84345 0.448241 0.276313
570 1 0.954218 0.590382 0.321066
694 1 0.961844 0.466269 0.3163
10 2 0.0549929 0.654844 0.277481
270 1 0.00126575 0.772255 0.287945
77 2 0.134496 0.790238 0.273444
457 1 0.235594 0.746386 0.230756
282 1 0.240919 0.601706 0.261693
73 2 0.205263 0.601385 0.23739
26 2 0.333035 0.689802 0.277612
650 1 0.256273 0.79004 0.313364
538 1 0.436354 0.641959 0.327499
666 1 0.461267 0.755228 0.323547
42 2 0.55138 0.66611 0.280173
554 1 0.708973 0.737326 0.329098
318 1 0.795441 0.782505 0.275294
682 1 0.707261 0.73508 0.32976
58 2 0.792772 0.68715 0.271342
109 2 0.665204 0.781315 0.25175
121 2 0.914496 0.60819 0.238436
698 1 0.924144 0.679897 0.310821
446 1 0.890551 0.797335 0.322547
14 2 0.119218 0.939031 0.257717
398 1 0.0652283 0.858788 0.323518
526 1 0.147189 0.853143 0.329691
274 1 0.251123 0.993182 0.256184
286 1 0.292993 0.874218 0.252515
30 2 0.384844 0.981059 0.271033
654 1 0.260564 0.957109 0.328539
542 1 0.352 0.870621 0.320004
302 1 0.543644 0.805755 0.271314
93 2 0.42766 0.830667 0.246076
430 1 0.479574 0.8818 0.319393
46 2 0.608902 0.933319 0.266342
558 1 0.701285 0.863657 0.330957
62 2 0.771181 0.914077 0.269196
258 1 0.993293 0.994767 0.242815
125 2 0.903707 0.836702 0.242296
574 1 0.940863 0.864117 0.323387
702 1 0.89961 0.952335 0.295087
130 2 0.188187 0.12417 0.378755
706 1 0.0676352 0.0642991 0.418193
578 1 0.0980286 0.156742 0.433494
462 1 0.174215 0.0193233 0.443273
210 2 0.354263 0.149345 0.377698
338 1 0.262027 0.0362636 0.39334
146 2 0.496669 0.0717387 0.410977
354 1 0.561878 0.0512119 0.406757
162 2 0.690286 0.051862 0.399267
226 2 0.607936 0.183619 0.378866
370 1 0.764871 0.0252698 0.376461
322 1 0.996977 0.0189419 0.364691
178 2 0.979834 0.155035 0.387962
242 2 0.821228 0.138587 0.360795
754 1 0.807696 0.0844327 0.438397
194 2 0.13237 0.273269 0.355161
710 1 0.082746 0.275334 0.438018
134 2 0.234914 0.373618 0.40932
342 1 0.267209 0.260181 0.381532
150 2 0.39327 0.317195 0.381395
450 1 0.202082 0.250531 0.443334
658 1 0.49526 0.233673 0.345564
358 1 0.567261 0.327539 0.386026
466 1 0.493659 0.245048 0.422988
166 2 0.700199 0.307786 0.398726
326 1 0.992786 0.282883 0.369029
374 1 0.856525 0.300621 0.372712
482 1 0.801279 0.222198 0.427395
498 1 0.95994 0.275764 0.443108
630 1 0.813774 0.349557 0.439171
394 1 0.0785518 0.596184 0.347266
198 2 0.124282 0.484891 0.381896
330 1 0.00265158 0.518086 0.376448
582 1 0.0780747 0.428502 0.434482
410 1 0.282852 0.59683 0.336144
214 2 0.342329 0.459804 0.3593
346 1 0.252127 0.505248 0.388938
598 1 0.36333 0.450583 0.433933
730 1 0.298618 0.562341 0.443496
662 1 0.470228 0.522928 0.343827
426 1 0.591279 0.555185 0.335642
362 1 0.541702 0.551618 0.408203
154 2 0.426508 0.579884 0.424742
470 1 0.502886 0.432375 0.400995
230 2 0.634517 0.429159 0.357072
378 1 0.781113 0.558137 0.400966
246 2 0.795423 0.426148 0.369172
170 2 0.673228 0.568555 0.399393
614 1 0.627772 0.441099 0.407943
442 1 0.859877 0.537731 0.340226
182 2 0.953095 0.400132 0.397513
762 1 0.859827 0.482404 0.443121
138 2 0.196302 0.624373 0.401667
202 2 0.0914562 0.73985 0.3633
218 2 0.343198 0.719044 0.373138
350 1 0.223447 0.75474 0.395468
234 2 0.556808 0.668219 0.37417
602 1 0.419515 0.723933 0.439891
382 1 0.795136 0.780676 0.381281
174 2 0.677047 0.793458 0.403537
618 1 0.625015 0.679005 0.438841
490 1 0.752054 0.68162 0.440366
186 2 0.966524 0.639483 0.398584
250 2 0.814822 0.660062 0.364062
190 2 0.929259 0.798129 0.400453
334 1 0.0602118 0.827088 0.393986
142 2 0.166542 0.867903 0.427631
206 2 0.124053 0.975288 0.355924
590 1 0.0497629 0.942303 0.425809
414 1 0.276228 0.859904 0.376608
222 2 0.375401 0.97731 0.372385
606 1 0.285485 0.934646 0.437943
734 1 0.312458 0.806552 0.442933
366 1 0.54397 0.807133 0.380467
158 2 0.454331 0.838502 0.399906
238 2 0.599249 0.923668 0.369031
622 1 0.549949 0.944216 0.444403
494 1 0.676139 0.934982 0.440918
638 1 0.790175 0.9645 0.435909
254 2 0.827092 0.90444 0.362076
3 2 0.131541 0.183463 0.533619
259 1 0.00554625 0.000689132 0.484983
114 2 0.00205599 0.135711 0.486445
387 1 0.0597195 0.0598785 0.546671
515 1 0.166431 0.0539886 0.543671
66 2 0.261128 0.135555 0.470553
722 1 0.351884 0.0393764 0.451255
594 1 0.386824 0.132411 0.450972
403 1 0.281095 0.088225 0.552
82 2 0.480956 0.123839 0.504681
738 1 0.580583 0.0393664 0.485254
531 1 0.437603 0.0767333 0.554954
98 2 0.712041 0.0671081 0.495463
307 1 0.763462 0.0485581 0.502956
610 1 0.601156 0.124854 0.462369
51 2 0.852193 0.148374 0.516687
626 1 0.891964 0.154551 0.449297
70 2 0.137993 0.354795 0.492393
263 1 0.0288004 0.272402 0.510222
19 2 0.367107 0.235468 0.523327
279 1 0.252777 0.264447 0.510925
726 1 0.333601 0.252972 0.444704
23 2 0.298105 0.385099 0.511047
86 2 0.44701 0.359211 0.469282
295 1 0.505074 0.25277 0.498674
423 1 0.542645 0.341049 0.549494
35 2 0.606304 0.205914 0.538139
742 1 0.607181 0.252137 0.454256
102 2 0.729445 0.283165 0.493816
311 1 0.757269 0.327082 0.510683
118 2 0.981527 0.393162 0.494785
758 1 0.861668 0.269655 0.486163
7 2 0.0893039 0.49851 0.537221
267 1 0.0233853 0.542066 0.522379
714 1 0.103141 0.549238 0.454725
454 1 0.215004 0.482455 0.467898
283 1 0.294408 0.534677 0.517049
299 1 0.477608 0.533803 0.515804
90 2 0.418269 0.49754 0.513937
746 1 0.54825 0.461485 0.471827
39 2 0.655143 0.429239 0.522707
315 1 0.789523 0.566508 0.50057
486 1 0.738776 0.480114 0.450778
106 2 0.680385 0.58973 0.49625
55 2 0.815563 0.436127 0.521019
502 1 0.985292 0.511667 0.448946
122 2 0.909779 0.598235 0.49166
11 2 0.042288 0.669663 0.52755
586 1 0.143649 0.723116 0.447192
506 1 0.025188 0.738024 0.453795
78 2 0.198345 0.784112 0.506595
74 2 0.200113 0.615937 0.502483
458 1 0.293818 0.68889 0.451481
27 2 0.365213 0.64375 0.520979
303 1 0.551975 0.794986 0.513467
474 1 0.516435 0.742965 0.445804
43 2 0.524541 0.648047 0.505008
110 2 0.669949 0.751427 0.500538
59 2 0.802328 0.699959 0.519259
634 1 0.87461 0.708789 0.451694
271 1 0.0637253 0.811276 0.520933
15 2 0.117392 0.942604 0.509336
718 1 0.0254087 0.872051 0.460347
275 1 0.249022 0.987773 0.501983
287 1 0.297593 0.861868 0.512443
31 2 0.373547 0.973151 0.527364
291 1 0.504552 0.95368 0.516331
94 2 0.426223 0.826672 0.495601
478 1 0.43229 0.947689 0.450323
750 1 0.575514 0.852405 0.448832
319 1 0.744097 0.81146 0.532323
47 2 0.637045 0.908992 0.516621
766 1 0.788129 0.80128 0.461098
63 2 0.806787 0.925455 0.516121
126 2 0.923883 0.81112 0.500948
510 1 0.914476 0.915473 0.446531
131 2 0.206779 0.130143 0.654976
211 2 0.370511 0.140053 0.608022
339 1 0.283378 0.0400221 0.639785
355 1 0.551986 0.0494493 0.646459
227 2 0.557367 0.174811 0.630079
419 1 0.561022 0.0740003 0.565385
163 2 0.684327 0.0827846 0.649092
371 1 0.78183 0.0499087 0.630484
547 1 0.68883 0.184266 0.600039
687 1 0.702027 0.0263373 0.572874
323 1 0.997234 0.0246327 0.623002
179 2 0.976442 0.157472 0.645006
243 2 0.818663 0.164634 0.607972
435 1 0.829172 0.0373819 0.564064
563 1 0.939533 0.0910225 0.570475
195 2 0.131907 0.268379 0.614351
327 1 0.0184133 0.27249 0.618622
391 1 0.060359 0.367465 0.569409
519 1 0.122702 0.393986 0.587869
183 2 0.00173317 0.397328 0.642884
643 1 0.254389 0.207557 0.574508
343 1 0.262509 0.259189 0.640565
407 1 0.235748 0.341509 0.580151
659 1 0.479723 0.243054 0.573082
151 2 0.463952 0.331681 0.632579
359 1 0.548996 0.297334 0.632863
535 1 0.417166 0.361631 0.556204
675 1 0.719023 0.254169 0.575723
167 2 0.672491 0.295795 0.648347
551 1 0.725931 0.383214 0.587491
691 1 0.961712 0.202859 0.561917
375 1 0.900335 0.295522 0.635797
439 1 0.836142 0.270449 0.559575
567 1 0.941407 0.329425 0.566944
199 2 0.148415 0.506855 0.629374
395 1 0.0567412 0.593389 0.601062
215 2 0.338955 0.439391 0.602264
347 1 0.287807 0.514911 0.632492
647 1 0.22619 0.475331 0.564299
363 1 0.542855 0.565984 0.637995
663 1 0.473334 0.491196 0.590259
231 2 0.596433 0.421031 0.611843
427 1 0.575681 0.541532 0.562265
155 2 0.407896 0.5649 0.65773
679 1 0.729821 0.529268 0.566951
171 2 0.675617 0.560909 0.644193
615 1 0.620534 0.444482 0.645714
331 1 0.932819 0.525155 0.636208
379 1 0.802339 0.534446 0.638281
247 2 0.848599 0.412269 0.613578
443 1 0.855054 0.539178 0.569884
571 1 0.944584 0.596218 0.573968
695 1 0.957471 0.462867 0.567933
523 1 0.111365 0.616336 0.592771
203 2 0.122861 0.754591 0.594669
411 1 0.2583 0.605609 0.58226
219 2 0.368655 0.694678 0.613678
351 1 0.232027 0.738448 0.632091
651 1 0.279321 0.736466 0.560171
539 1 0.466154 0.617131 0.578616
667 1 0.47835 0.748075 0.568188
235 2 0.587818 0.671915 0.599384
555 1 0.704397 0.656614 0.561942
383 1 0.784101 0.784866 0.633371
683 1 0.712854 0.726928 0.581801
175 2 0.674062 0.792236 0.653687
187 2 0.992378 0.68568 0.636391
251 2 0.826018 0.654266 0.615672
699 1 0.921203 0.698743 0.558277
575 1 0.990599 0.794908 0.580445
335 1 0.0447259 0.824941 0.648851
207 2 0.127656 0.998821 0.613761
399 1 0.0899879 0.884014 0.58066
527 1 0.143506 0.881562 0.579398
223 2 0.364661 0.936687 0.622755
415 1 0.252181 0.849943 0.588215
655 1 0.252962 0.975202 0.577175
543 1 0.369092 0.825491 0.574432
735 1 0.317431 0.81725 0.651248
367 1 0.558657 0.805209 0.622067
159 2 0.457326 0.812681 0.64443
671 1 0.48127 0.98414 0.594662
431 1 0.507648 0.868591 0.56818
239 2 0.622036 0.935548 0.616736
559 1 0.724591 0.848757 0.566112
255 2 0.793557 0.920449 0.61821
191 2 0.909573 0.825367 0.649272
447 1 0.847498 0.812869 0.571079
703 1 0.911862 0.947684 0.572313
707 1 0.074315 0.07117 0.677985
115 2 0.00347655 0.129397 0.741544
579 1 0.0916976 0.17676 0.688296
463 1 0.186894 0.00352771 0.691763
67 2 0.257899 0.160991 0.752665
723 1 0.320559 0.0673123 0.710831
595 1 0.345485 0.129501 0.696925
147 2 0.443958 0.0465322 0.679999
83 2 0.474066 0.138489 0.765831
739 1 0.582582 0.0699113 0.723036
611 1 0.584634 0.107527 0.715505
99 2 0.707667 0.0785976 0.744144
308 1 0.761733 0.0596585 0.757305
755 1 0.800611 0.111047 0.692666
627 1 0.889667 0.157193 0.706441
71 2 0.136012 0.339732 0.760397
264 1 0.0159114 0.266708 0.758784
451 1 0.187688 0.247786 0.701035
711 1 0.0787548 0.299121 0.690334
135 2 0.220385 0.378545 0.672636
20 2 0.371692 0.260377 0.75093
280 1 0.283504 0.29102 0.731635
727 1 0.370962 0.238282 0.668306
599 1 0.353187 0.33016 0.679002
87 2 0.48609 0.363158 0.728799
296 1 0.508252 0.266133 0.76356
467 1 0.482859 0.237135 0.690768
743 1 0.597302 0.239263 0.711278
103 2 0.733534 0.294587 0.74111
312 1 0.775271 0.320717 0.776991
483 1 0.811811 0.236786 0.679382
119 2 0.971176 0.391344 0.744607
499 1 0.957123 0.281595 0.689526
759 1 0.872735 0.265746 0.746373
631 1 0.852649 0.342848 0.705097
583 1 0.0952758 0.425954 0.698118
503 1 0.00296983 0.506891 0.701883
715 1 0.121395 0.548959 0.703859
455 1 0.236186 0.505652 0.70681
24 2 0.299926 0.404399 0.767176
284 1 0.314186 0.528917 0.760773
731 1 0.346889 0.454758 0.68986
300 1 0.480548 0.535209 0.746053
471 1 0.491032 0.458096 0.667229
91 2 0.440398 0.510822 0.752301
747 1 0.583495 0.499151 0.707694
40 2 0.637893 0.431676 0.773036
316 1 0.797179 0.57161 0.735979
487 1 0.741375 0.480216 0.69868
107 2 0.682507 0.587178 0.740941
268 1 0.964477 0.534388 0.774452
56 2 0.804981 0.441018 0.768973
763 1 0.868514 0.473278 0.694349
75 2 0.189301 0.621803 0.760297
587 1 0.135349 0.713662 0.679234
507 1 0.0140431 0.737613 0.714056
79 2 0.137 0.774895 0.750694
139 2 0.24824 0.624638 0.668487
459 1 0.255697 0.751186 0.712537
28 2 0.361044 0.649311 0.747426
603 1 0.37904 0.715296 0.676077
304 1 0.553825 0.794476 0.740959
475 1 0.539442 0.726389 0.678122
44 2 0.528454 0.649516 0.749908
619 1 0.644543 0.674703 0.684273
491 1 0.7595 0.68797 0.691079
111 2 0.674567 0.758232 0.751669
60 2 0.814928 0.687285 0.772733
123 2 0.91768 0.608147 0.712867
635 1 0.879293 0.726646 0.697801
143 2 0.171016 0.861179 0.669827
260 1 0.00621614 0.99267 0.74633
16 2 0.130733 0.935989 0.763803
591 1 0.0575986 0.948053 0.681347
719 1 0.030686 0.865901 0.721435
276 1 0.250886 0.999737 0.755749
288 1 0.275025 0.87519 0.769282
32 2 0.380042 0.973445 0.767017
607 1 0.29598 0.935002 0.695795
95 2 0.372448 0.81908 0.728931
292 1 0.510394 0.985981 0.749332
479 1 0.452561 0.914966 0.696304
623 1 0.570305 0.95457 0.691513
751 1 0.569098 0.870561 0.684156
320 1 0.73596 0.810813 0.774718
48 2 0.618585 0.90347 0.76411
495 1 0.680404 0.961774 0.695556
64 2 0.780517 0.930629 0.76614
639 1 0.795208 0.990641 0.691799
767 1 0.788741 0.809302 0.706988
127 2 0.906215 0.83017 0.751088
511 1 0.935792 0.931656 0.692305
4 2 0.121877 0.17721 0.803377
324 1 0.0260658 0.0333659 0.878196
388 1 0.0713774 0.0484823 0.802831
516 1 0.180578 0.0526731 0.797364
340 1 0.282951 0.0267828 0.888254
404 1 0.299602 0.0746859 0.811
356 1 0.517318 0.00634119 0.879035
532 1 0.455673 0.0517571 0.824143
228 2 0.54974 0.13428 0.865732
420 1 0.575572 0.0486609 0.799838
36 2 0.626021 0.193133 0.788568
548 1 0.72871 0.128885 0.821383
688 1 0.69264 0.00824409 0.817263
52 2 0.854472 0.138652 0.779506
372 1 0.897123 0.0334961 0.884486
244 2 0.822572 0.152822 0.872797
436 1 0.810473 0.0329964 0.830008
564 1 0.949385 0.0591284 0.814247
692 1 0.975928 0.194031 0.81564
196 2 0.13886 0.30922 0.864785
328 1 0.0351776 0.269819 0.868422
392 1 0.0423521 0.375127 0.820449
212 2 0.345236 0.222423 0.845124
644 1 0.242084 0.258103 0.798343
344 1 0.249873 0.220314 0.878163
408 1 0.269 0.338081 0.853039
536 1 0.396452 0.346907 0.815963
660 1 0.481375 0.245903 0.838495
360 1 0.581669 0.286535 0.871105
424 1 0.515911 0.358446 0.815363
676 1 0.731161 0.257523 0.833743
376 1 0.915689 0.275998 0.886353
440 1 0.858573 0.250606 0.820924
568 1 0.938623 0.31224 0.813546
248 2 0.828625 0.365244 0.857335
8 2 0.089022 0.496568 0.780638
520 1 0.184592 0.408305 0.811529
200 2 0.1306 0.483854 0.875267
396 1 0.00993475 0.550458 0.846628
216 2 0.334911 0.45314 0.858739
648 1 0.227541 0.511994 0.813897
364 1 0.539387 0.53042 0.880836
540 1 0.439809 0.59956 0.809099
664 1 0.460432 0.478065 0.832662
232 2 0.585042 0.422725 0.870669
428 1 0.557195 0.541691 0.806481
552 1 0.71567 0.422535 0.840189
380 1 0.781064 0.50067 0.875614
680 1 0.716688 0.53895 0.813634
332 1 0.899869 0.524783 0.880079
444 1 0.846406 0.549569 0.807442
696 1 0.933016 0.448618 0.821908
12 2 0.0336077 0.655551 0.784836
524 1 0.133316 0.602852 0.835651
204 2 0.126576 0.747514 0.849935
336 1 0.0176639 0.759534 0.86281
412 1 0.266498 0.625308 0.832621
220 2 0.375183 0.726734 0.841661
352 1 0.254059 0.727432 0.871791
652 1 0.257618 0.757088 0.796598
668 1 0.458796 0.753718 0.779506
236 2 0.533768 0.669557 0.850881
556 1 0.693234 0.671667 0.813223
684 1 0.723998 0.73227 0.830426
252 2 0.788445 0.628837 0.863282
572 1 0.912782 0.623064 0.81748
700 1 0.927169 0.729361 0.814751
272 1 0.0252965 0.800987 0.788305
208 2 0.145884 0.97955 0.862326
400 1 0.0681271 0.873045 0.843949
528 1 0.181813 0.858085 0.82274
224 2 0.388149 0.949164 0.866644
416 1 0.292757 0.845874 0.848465
656 1 0.264469 0.961363 0.825725
544 1 0.395485 0.850025 0.810174
672 1 0.505287 0.940128 0.817387
432 1 0.537881 0.819858 0.819106
240 2 0.619557 0.917502 0.867754
560 1 0.711486 0.849143 0.813908
256 2 0.789428 0.909377 0.870065
448 1 0.8286 0.805781 0.822715
576 1 0.943717 0.851544 0.833442
704 1 0.895452 0.944226 0.809429
132 2 0.14625 0.148507 0.902983
708 1 0.0496207 0.0771442 0.94899
464 1 0.197612 0.00298386 0.941839
724 1 0.273722 0.106394 0.948421
596 1 0.339678 0.17745 0.951266
84 2 0.45455 0.119099 0.991649
148 2 0.400991 0.100895 0.898701
740 1 0.535006 0.100176 0.926127
305 1 0.763904 0.0167294 0.993806
100 2 0.636198 0.108787 0.979648
164 2 0.715664 0.0452137 0.90236
484 1 0.744213 0.183117 0.933926
116 2 0.949206 0.142633 0.997475
180 2 0.977354 0.157955 0.898948
756 1 0.839965 0.0829439 0.946175
580 1 0.0724236 0.204798 0.970336
712 1 0.0834871 0.327552 0.936312
452 1 0.224079 0.218754 0.965305
728 1 0.313482 0.294063 0.926756
293 1 0.53575 0.245346 0.995067
88 2 0.40529 0.275961 0.992293
152 2 0.439135 0.348453 0.902263
468 1 0.490996 0.221562 0.920564
744 1 0.570616 0.329143 0.942642
309 1 0.780897 0.295122 0.975262
612 1 0.664985 0.246981 0.982798
104 2 0.682552 0.386171 0.997382
168 2 0.694444 0.312646 0.908397
120 2 0.989427 0.396703 0.994855
184 2 0.978927 0.398372 0.894758
500 1 0.976777 0.271855 0.947144
628 1 0.864469 0.212583 0.949766
760 1 0.883275 0.343892 0.948086
265 1 0.0515611 0.546076 0.999396
456 1 0.15564 0.523434 0.954195
584 1 0.0930484 0.446818 0.950529
716 1 0.0579252 0.587562 0.914915
21 2 0.372945 0.432706 0.988895
281 1 0.278197 0.529078 0.967569
348 1 0.270967 0.532452 0.892112
136 2 0.229799 0.408218 0.935247
600 1 0.354805 0.462505 0.905773
472 1 0.500037 0.458858 0.939714
156 2 0.403977 0.589458 0.898113
748 1 0.517919 0.586715 0.947955
313 1 0.796896 0.535387 0.997911
616 1 0.60757 0.491122 0.973972
488 1 0.781676 0.412049 0.937432
108 2 0.679301 0.59485 0.999728
172 2 0.64757 0.58563 0.903823
504 1 0.982438 0.507589 0.940962
632 1 0.885567 0.472781 0.952725
124 2 0.917707 0.59816 0.985525
764 1 0.817829 0.577998 0.927241
140 2 0.1809 0.629898 0.906677
588 1 0.115881 0.723426 0.949759
460 1 0.228895 0.735439 0.949413
604 1 0.339388 0.718797 0.976322
732 1 0.301511 0.638534 0.939489
92 2 0.39954 0.602848 0.99523
736 1 0.333395 0.791875 0.915091
368 1 0.555905 0.781059 0.895518
476 1 0.472686 0.708484 0.933671
620 1 0.593126 0.685303 0.950496
492 1 0.747705 0.677814 0.9425
176 2 0.676422 0.778346 0.901689
384 1 0.817153 0.752445 0.892635
188 2 0.934161 0.669406 0.894867
508 1 0.991934 0.741783 0.957758
636 1 0.856279 0.724073 0.961359
144 2 0.190896 0.859783 0.927609
592 1 0.0831066 0.95928 0.941072
720 1 0.0589989 0.827406 0.920113
128 2 0.00161012 0.878543 0.994288
285 1 0.280108 0.836231 0.99003
608 1 0.312982 0.935408 0.945395
289 1 0.524582 0.999145 0.992632
96 2 0.415527 0.829677 0.97699
160 2 0.491611 0.827447 0.893618
480 1 0.46122 0.944191 0.938349
624 1 0.597145 0.989624 0.935707
752 1 0.553823 0.86492 0.964956
496 1 0.712709 0.925051 0.942348
768 1 0.795964 0.837793 0.947452
192 2 0.918178 0.833273 0.911354
512 1 0.960336 0.97191 0.940815
640 1 0.840097 0.952758 0.943033
ITEM: TIMESTEP
100
ITEM: NUMBER OF ATOMS
768
ITEM: BOX BOUNDS pp pp pp
-4.3111899999999997e-01 1.8968881000000000e+01
-4.3111899999999997e-01 1.8968881000000000e+01
-2.9254300000000000e-01 3.1207457000000002e+01
ITEM: ATOMS id type xs ys zs
1 2 0.0684969 0.189084 0.064101
257 1 0.0183367 0.0167439 0.011455
385 1 0.088844 0.0535883 0.0691892
513 1 0.197683 0.10109 0.0849663
68 2 0.160391 0.103946 0.000258344
17 2 0.312237 0.150247 0.0296102
273 1 0.269645 0.0117157 0.00326898
401 1 0.32055 0.0374341 0.0712246
529 1 0.424194 0.0714439 0.0692146
417 1 0.552041 0.0804978 0.0512686
545 1 0.688175 0.0928083 0.0591744
49 2 0.785691 0.154038 0.0103011
433 1 0.858052 0.0438071 0.0433539
561 1 0.965631 0.0803282 0.0740033
241 2 0.822376 0.131229 0.105529
389 1 0.0530246 0.360647 0.0711327
517 1 0.200325 0.329793 0.0865503
72 2 0.13569 0.318259 0.00844617
641 1 0.206658 0.222646 0.0500648
277 1 0.278472 0.329628 0.0058263
405 1 0.311782 0.265971 0.0818484
213 2 0.324717 0.402664 0.0853648
657 1 0.428744 0.212417 0.0684754
33 2 0.552453 0.217164 0.030287
533 1 0.42732 0.334851 0.058359
37 2 0.527293 0.383687 0.0137702
673 1 0.734877 0.238185 0.101738
421 1 0.636621 0.291177 0.0701114
549 1 0.74674 0.354533 0.0725463
689 1 0.929181 0.216662 0.0759659
261 1 0.997439 0.272853 0.0219956
437 1 0.824736 0.266554 0.0513996
565 1 0.928926 0.34536 0.0766575
5 2 0.120647 0.475381 0.0305648
393 1 0.098211 0.590189 0.0703896
409 1 0.312766 0.603439 0.0598558
645 1 0.259159 0.497801 0.0441253
297 1 0.500258 0.517535 0.009658
661 1 0.41051 0.513592 0.0598772
425 1 0.597866 0.527628 0.0562535
677 1 0.73432 0.502409 0.0687228
229 2 0.634245 0.415464 0.0951587
53 2 0.838797 0.405117 0.0222387
441 1 0.86076 0.540786 0.0604321
569 1 0.977482 0.580454 0.062295
693 1 0.961523 0.459693 0.0690626
9 2 0.0449722 0.67569 0.0183742
269 1 0.0231377 0.758044 0.0356309
201 2 0.0936308 0.730488 0.10692
76 2 0.198056 0.621984 0.00824208
80 2 0.154042 0.787099 0.0166303
521 1 0.208051 0.612961 0.0973375
25 2 0.384175 0.73436 0.056141
649 1 0.248009 0.725882 0.0711221
537 1 0.442271 0.628273 0.0904228
301 1 0.521893 0.759752 0.00198533
665 1 0.512241 0.752046 0.084796
41 2 0.540743 0.652198 0.0293201
553 1 0.674674 0.669942 0.0726339
317 1 0.793265 0.795054 0.0143891
681 1 0.729294 0.747992 0.0819861
112 2 0.659955 0.765743 0.00474113
57 2 0.801581 0.665702 0.0341019
697 1 0.927537 0.696603 0.0570878
445 1 0.853213 0.787321 0.0757008
13 2 0.148672 0.942941 0.0191924
397 1 0.0583444 0.862634 0.0761649
525 1 0.182468 0.842274 0.0884676
29 2 0.395413 0.970154 0.0152735
413 1 0.307963 0.829521 0.0909406
653 1 0.26369 0.934 0.0706293
541 1 0.444983 0.855407 0.0567731
669 1 0.517323 0.962306 0.0679234
429 1 0.568686 0.84954 0.049749
45 2 0.645245 0.950766 0.0141089
557 1 0.725783 0.861486 0.0526185
685 1 0.75478 0.991301 0.074054
61 2 0.849037 0.910507 0.0221881
573 1 0.935223 0.829619 0.0657422
701 1 0.952879 0.953724 0.0674762
129 2 0.181317 0.0707983 0.197714
321 1 0.00972764 0.0107711 0.128294
705 1 0.0498101 0.0660889 0.192861
577 1 0.079294 0.19454 0.194834
209 2 0.314667 0.13304 0.129074
337 1 0.274368 0.00319975 0.134014
721 1 0.34833 0.0176912 0.191194
593 1 0.400439 0.184772 0.186805
145 2 0.4719 0.079209 0.160759
353 1 0.567345 0.0395781 0.122399
737 1 0.59041 0.0970494 0.205011
609 1 0.596032 0.102305 0.197599
161 2 0.692579 0.0559612 0.154886
225 2 0.603174 0.167071 0.112658
481 1 0.76248 0.194683 0.170125
369 1 0.878568 0.00564466 0.125182
177 2 0.981558 0.148674 0.147656
753 1 0.803793 0.0804787 0.190945
625 1 0.87951 0.15736 0.190811
193 2 0.178668 0.213247 0.137822
325 1 0.00366949 0.276523 0.12517
709 1 0.0890364 0.315744 0.178723
133 2 0.223945 0.346719 0.184507
449 1 0.275636 0.227475 0.188037
341 1 0.27612 0.33604 0.14546
725 1 0.369657 0.303314 0.200261
149 2 0.464706 0.383817 0.161437
357 1 0.61024 0.31029 0.150386
465 1 0.507895 0.247633 0.147998
741 1 0.615769 0.220145 0.198984
165 2 0.729051 0.346002 0.171178
373 1 0.846206 0.29876 0.126049
497 1 0.970597 0.2636 0.203127
757 1 0.836692 0.265209 0.205927
629 1 0.875996 0.349209 0.193577
197 2 0.172632 0.456831 0.120323
329 1 0.0395297 0.532172 0.123227
581 1 0.103285 0.39879 0.193488
713 1 0.113917 0.514698 0.197762
345 1 0.277427 0.531553 0.122256
597 1 0.33724 0.422421 0.182563
729 1 0.31491 0.553875 0.199052
361 1 0.547144 0.497695 0.133442
469 1 0.498237 0.485885 0.205922
153 2 0.404117 0.517104 0.139935
745 1 0.564473 0.584559 0.19862
613 1 0.609799 0.413118 0.195764
485 1 0.764117 0.471982 0.206321