ITEM: TIMESTEP
0
ITEM: NUMBER OF ATOMS
192
ITEM: BOX BOUNDS pp pp pp
-5.1810099999999997e+00 1.3918990000000001e+01
-5.1810099999999997e+00 1.3918990000000001e+01
-1.6228500000000000e+01 4.5771500000000003e+01
ITEM: ATOMS id type xs ys zs
1 2 0.271257 0.271257 0.28525
145 1 0.395864 0.271257 0.26175
161 1 0.271257 0.395864 0.26175
177 1 0.395864 0.395864 0.26175
5 2 0.520472 0.271257 0.28525
165 1 0.520472 0.395864 0.26175
149 1 0.645079 0.271257 0.26175
181 1 0.645079 0.395864 0.26175
3 2 0.271257 0.520472 0.28525
65 1 0.354329 0.4374 0.293035
147 1 0.395864 0.520472 0.26175
7 2 0.520472 0.520472 0.28525
69 1 0.603543 0.4374 0.293035
151 1 0.645079 0.520472 0.26175
67 1 0.354329 0.686615 0.293035
163 1 0.271257 0.645079 0.26175
179 1 0.395864 0.645079 0.26175
167 1 0.520472 0.645079 0.26175
71 1 0.603543 0.686615 0.293035
183 1 0.645079 0.645079 0.26175
97 1 0.312201 0.353144 0.32425
41 2 0.4374 0.354329 0.3478
57 2 0.4374 0.354329 0.3007
101 1 0.561415 0.353144 0.32425
45 2 0.686615 0.354329 0.3478
61 2 0.686615 0.354329 0.3007
129 1 0.312201 0.479528 0.32425
113 1 0.438585 0.479528 0.32425
133 1 0.561415 0.479528 0.32425
117 1 0.687799 0.479528 0.32425
99 1 0.312201 0.602359 0.32425
131 1 0.312201 0.728743 0.32425
43 2 0.4374 0.603543 0.3478
59 2 0.4374 0.603543 0.3007
103 1 0.561415 0.602359 0.32425
115 1 0.438585 0.728743 0.32425
135 1 0.561415 0.728743 0.32425
47 2 0.686615 0.603543 0.3478
63 2 0.686615 0.603543 0.3007
119 1 0.687799 0.728743 0.32425
9 2 0.271257 0.271257 0.41025
17 2 0.271257 0.271257 0.36325
153 1 0.395864 0.395864 0.38675
169 1 0.395864 0.271257 0.38675
185 1 0.271257 0.395864 0.38675
13 2 0.520472 0.271257 0.41025
21 2 0.520472 0.271257 0.36325
189 1 0.520472 0.395864 0.38675
157 1 0.645079 0.395864 0.38675
173 1 0.645079 0.271257 0.38675
11 2 0.271257 0.520472 0.41025
19 2 0.271257 0.520472 0.36325
81 1 0.354329 0.4374 0.355465
171 1 0.395864 0.520472 0.38675
15 2 0.520472 0.520472 0.41025
23 2 0.520472 0.520472 0.36325
85 1 0.603543 0.4374 0.355465
175 1 0.645079 0.520472 0.38675
83 1 0.354329 0.686615 0.355465
155 1 0.395864 0.645079 0.38675
187 1 0.271257 0.645079 0.38675
191 1 0.520472 0.645079 0.38675
87 1 0.603543 0.686615 0.355465
159 1 0.645079 0.645079 0.38675
137 1 0.353144 0.312201 0.44925
73 1 0.4374 0.354329 0.418035
105 1 0.479528 0.312201 0.44925
77 1 0.686615 0.354329 0.418035
109 1 0.728743 0.312201 0.44925
141 1 0.602359 0.312201 0.44925
49 2 0.354329 0.4374 0.4257
139 1 0.353144 0.561415 0.44925
107 1 0.479528 0.561415 0.44925
121 1 0.479528 0.438585 0.44925
53 2 0.603543 0.4374 0.4257
111 1 0.728743 0.561415 0.44925
125 1 0.728743 0.438585 0.44925
143 1 0.602359 0.561415 0.44925
51 2 0.354329 0.686615 0.4257
75 1 0.4374 0.603543 0.418035
123 1 0.479528 0.687799 0.44925
55 2 0.603543 0.686615 0.4257
79 1 0.686615 0.603543 0.418035
127 1 0.728743 0.687799 0.44925
25 2 0.271257 0.271257 0.48825
146 1 0.395864 0.271257 0.51175
162 1 0.271257 0.395864 0.51175
178 1 0.395864 0.395864 0.51175
29 2 0.520472 0.271257 0.48825
89 1 0.4374 0.354329 0.480465
166 1 0.520472 0.395864 0.51175
93 1 0.686615 0.354329 0.480465
150 1 0.645079 0.271257 0.51175
182 1 0.645079 0.395864 0.51175
27 2 0.271257 0.520472 0.48825
33 2 0.354329 0.4374 0.4728
148 1 0.395864 0.520472 0.51175
31 2 0.520472 0.520472 0.48825
37 2 0.603543 0.4374 0.4728
152 1 0.645079 0.520472 0.51175
35 2 0.354329 0.686615 0.4728
164 1 0.271257 0.645079 0.51175
180 1 0.395864 0.645079 0.51175
91 1 0.4374 0.603543 0.480465
168 1 0.520472 0.645079 0.51175
39 2 0.603543 0.686615 0.4728
95 1 0.686615 0.603543 0.480465
184 1 0.645079 0.645079 0.51175
2 2 0.271257 0.271257 0.53525
98 1 0.312201 0.353144 0.57425
6 2 0.520472 0.271257 0.53525
58 2 0.4374 0.354329 0.5507
102 1 0.561415 0.353144 0.57425
62 2 0.686615 0.354329 0.5507
4 2 0.271257 0.520472 0.53525
66 1 0.354329 0.4374 0.543035
130 1 0.312201 0.479528 0.57425
8 2 0.520472 0.520472 0.53525
114 1 0.438585 0.479528 0.57425
134 1 0.561415 0.479528 0.57425
70 1 0.603543 0.4374 0.543035
118 1 0.687799 0.479528 0.57425
68 1 0.354329 0.686615 0.543035
100 1 0.312201 0.602359 0.57425
132 1 0.312201 0.728743 0.57425
60 2 0.4374 0.603543 0.5507
104 1 0.561415 0.602359 0.57425
116 1 0.438585 0.728743 0.57425
136 1 0.561415 0.728743 0.57425
64 2 0.686615 0.603543 0.5507
72 1 0.603543 0.686615 0.543035
120 1 0.687799 0.728743 0.57425
18 2 0.271257 0.271257 0.61325
154 1 0.395864 0.395864 0.63675
170 1 0.395864 0.271257 0.63675
186 1 0.271257 0.395864 0.63675
22 2 0.520472 0.271257 0.61325
42 2 0.4374 0.354329 0.5978
190 1 0.520472 0.395864 0.63675
46 2 0.686615 0.354329 0.5978
158 1 0.645079 0.395864 0.63675
174 1 0.645079 0.271257 0.63675
20 2 0.271257 0.520472 0.61325
82 1 0.354329 0.4374 0.605465
172 1 0.395864 0.520472 0.63675
24 2 0.520472 0.520472 0.61325
86 1 0.603543 0.4374 0.605465
176 1 0.645079 0.520472 0.63675
84 1 0.354329 0.686615 0.605465
156 1 0.395864 0.645079 0.63675
188 1 0.271257 0.645079 0.63675
44 2 0.4374 0.603543 0.5978
192 1 0.520472 0.645079 0.63675
48 2 0.686615 0.603543 0.5978
88 1 0.603543 0.686615 0.605465
160 1 0.645079 0.645079 0.63675
10 2 0.271257 0.271257 0.66025
138 1 0.353144 0.312201 0.69925
14 2 0.520472 0.271257 0.66025
74 1 0.4374 0.354329 0.668035
106 1 0.479528 0.312201 0.69925
78 1 0.686615 0.354329 0.668035
110 1 0.728743 0.312201 0.69925
142 1 0.602359 0.312201 0.69925
12 2 0.271257 0.520472 0.66025
50 2 0.354329 0.4374 0.6757
140 1 0.353144 0.561415 0.69925
16 2 0.520472 0.520472 0.66025
108 1 0.479528 0.561415 0.69925
122 1 0.479528 0.438585 0.69925
54 2 0.603543 0.4374 0.6757
112 1 0.728743 0.561415 0.69925
126 1 0.728743 0.438585 0.69925
144 1 0.602359 0.561415 0.69925
52 2 0.354329 0.686615 0.6757
76 1 0.4374 0.603543 0.668035
124 1 0.479528 0.687799 0.69925
56 2 0.603543 0.686615 0.6757
80 1 0.686615 0.603543 0.668035
128 1 0.728743 0.687799 0.69925
26 2 0.271257 0.271257 0.73825
30 2 0.520472 0.271257 0.73825
90 1 0.4374 0.354329 0.730465
94 1 0.686615 0.354329 0.730465
28 2 0.271257 0.520472 0.73825
34 2 0.354329 0.4374 0.7228
32 2 0.520472 0.520472 0.73825
38 2 0.603543 0.4374 0.7228
36 2 0.354329 0.686615 0.7228
92 1 0.4374 0.603543 0.730465
40 2 0.603543 0.686615 0.7228
96 1 0.686615 0.603543 0.730465
ITEM: TIMESTEP
100
ITEM: NUMBER OF ATOMS
192
ITEM: BOX BOUNDS pp pp pp
-5.1810099999999997e+00 1.3918990000000001e+01
-5.1810099999999997e+00 1.3918990000000001e+01
-1.6228500000000000e+01 4.5771500000000003e+01
ITEM: ATOMS id type xs ys zs
1 2 0.353614 0.335481 0.281098
145 1 0.451611 0.268647 0.269132
161 1 0.26051 0.356379 0.258481
177 1 0.452606 0.349993 0.257907
5 2 0.558612 0.331673 0.279036
165 1 0.536827 0.382066 0.245215
149 1 0.633057 0.243036 0.266797
181 1 0.633331 0.440222 0.281449
3 2 0.295212 0.628047 0.298921
65 1 0.280933 0.417412 0.299326
147 1 0.411728 0.522568 0.260102
7 2 0.526726 0.563446 0.265842
69 1 0.58281 0.428627 0.304751
151 1 0.735646 0.467431 0.284262
67 1 0.36953 0.727584 0.307815
163 1 0.245168 0.662837 0.267047
179 1 0.313322 0.637273 0.262554
167 1 0.527042 0.661182 0.244036
71 1 0.55112 0.67716 0.288522
183 1 0.608246 0.591003 0.239628
97 1 0.339241 0.339427 0.323351
41 2 0.480128 0.439613 0.362257
57 2 0.451514 0.404598 0.312309
101 1 0.555483 0.323785 0.32557
45 2 0.652578 0.363342 0.351395
61 2 0.678015 0.30468 0.310351
129 1 0.289173 0.449083 0.324429
113 1 0.362296 0.506102 0.295372
133 1 0.506992 0.520277 0.325565
117 1 0.695144 0.438426 0.316846
99 1 0.318666 0.619097 0.305044
131 1 0.290682 0.711093 0.335732
43 2 0.367405 0.541618 0.338665
59 2 0.452163 0.617095 0.303411
103 1 0.552507 0.647346 0.33034
115 1 0.416324 0.683184 0.339485
135 1 0.631078 0.736189 0.327868
47 2 0.612077 0.515706 0.351128
63 2 0.621402 0.552578 0.304294
119 1 0.670835 0.62603 0.337003
9 2 0.381366 0.345118 0.404841
17 2 0.326322 0.407715 0.361658
153 1 0.449964 0.438447 0.384599
169 1 0.398339 0.296126 0.366897
185 1 0.266392 0.416231 0.397285
13 2 0.623679 0.30889 0.424475
21 2 0.5267 0.310729 0.385129
189 1 0.556871 0.439895 0.381049
157 1 0.6243 0.397767 0.393937
173 1 0.613564 0.219106 0.395252
11 2 0.307828 0.544017 0.394107
19 2 0.239861 0.620514 0.358125
81 1 0.265799 0.464408 0.331789
171 1 0.381612 0.537594 0.361072
15 2 0.576853 0.495565 0.41746
23 2 0.485954 0.585517 0.38338
85 1 0.599696 0.383651 0.358751
175 1 0.592318 0.484287 0.378388
83 1 0.299798 0.694968 0.333941
155 1 0.371383 0.59249 0.362016
187 1 0.208716 0.629714 0.395227
191 1 0.505029 0.696394 0.364132
87 1 0.590331 0.635232 0.3661
159 1 0.614471 0.573741 0.387016
137 1 0.393318 0.369499 0.448157
73 1 0.472359 0.270505 0.420323
105 1 0.424141 0.264461 0.432504
77 1 0.751128 0.30267 0.429009
109 1 0.716514 0.26985 0.450144
141 1 0.634097 0.339193 0.430009
49 2 0.418252 0.48375 0.42452
139 1 0.330239 0.535037 0.456502
107 1 0.44468 0.585226 0.45024
121 1 0.516126 0.333443 0.45077
53 2 0.721096 0.434945 0.423476
111 1 0.73774 0.612634 0.457748
125 1 0.770648 0.376048 0.458156
143 1 0.739794 0.496071 0.46015
51 2 0.297643 0.63748 0.43367
75 1 0.404877 0.618952 0.417461
123 1 0.409917 0.70665 0.443958
55 2 0.52875 0.659304 0.426928
79 1 0.688592 0.560721 0.430276
127 1 0.628144 0.650965 0.453583
25 2 0.351482 0.376595 0.487769
146 1 0.404739 0.292016 0.513199
162 1 0.248482 0.411024 0.51069
178 1 0.423328 0.447103 0.516121
29 2 0.611199 0.268318 0.474237
89 1 0.444815 0.293783 0.480267
166 1 0.56969 0.415285 0.47822
93 1 0.733252 0.279789 0.47743
150 1 0.586014 0.227221 0.510191
182 1 0.616369 0.410261 0.487522
27 2 0.317064 0.524746 0.500226
33 2 0.486468 0.463401 0.469269
148 1 0.428996 0.439162 0.514428
31 2 0.613869 0.550991 0.480595
37 2 0.633231 0.414534 0.464857
152 1 0.726484 0.534415 0.49571
35 2 0.345641 0.655822 0.47834
164 1 0.21072 0.598672 0.501332
180 1 0.394782 0.644408 0.507751
91 1 0.421493 0.577239 0.477608
168 1 0.55811 0.585402 0.481155
39 2 0.504518 0.676336 0.47545
95 1 0.722615 0.606287 0.476601
184 1 0.613675 0.609581 0.518618
2 2 0.339827 0.375586 0.538027
98 1 0.371295 0.385986 0.579487
6 2 0.52764 0.349352 0.509772
58 2 0.483198 0.407709 0.558485
102 1 0.553127 0.320046 0.584101
62 2 0.62593 0.35436 0.550628
4 2 0.283415 0.637892 0.531018
66 1 0.305348 0.500236 0.540367
130 1 0.313101 0.476796 0.562555
8 2 0.492315 0.557588 0.513606
114 1 0.37245 0.501575 0.597268
134 1 0.498263 0.532241 0.586575
70 1 0.614384 0.385633 0.552065
118 1 0.692608 0.437512 0.576721
68 1 0.305621 0.746455 0.547567
100 1 0.307933 0.650524 0.572089
132 1 0.278082 0.769401 0.575246
60 2 0.407651 0.566324 0.555463
104 1 0.503839 0.698614 0.574247
116 1 0.389733 0.732958 0.573877
136 1 0.60703 0.754919 0.573694
64 2 0.593147 0.512098 0.551489
72 1 0.51079 0.65121 0.540884
120 1 0.609758 0.634001 0.566653
18 2 0.341358 0.339904 0.614354
154 1 0.418758 0.473621 0.633074
170 1 0.442345 0.265744 0.628457
186 1 0.300869 0.424961 0.641536
22 2 0.57814 0.279159 0.625006
42 2 0.489577 0.418177 0.610458
190 1 0.537209 0.352498 0.654446
46 2 0.683099 0.311835 0.591745
158 1 0.680458 0.350999 0.64162
174 1 0.640697 0.180709 0.64274
20 2 0.271786 0.596733 0.597494
82 1 0.306192 0.447839 0.631467
172 1 0.393153 0.610404 0.617963
24 2 0.513866 0.572643 0.631019
86 1 0.630806 0.397923 0.607756
176 1 0.659667 0.547545 0.624364
84 1 0.30707 0.716514 0.60221
156 1 0.306048 0.675639 0.624913
188 1 0.218593 0.616995 0.632982
44 2 0.42073 0.631549 0.600231
192 1 0.409423 0.649046 0.630001
48 2 0.62116 0.531371 0.600198
88 1 0.558779 0.641773 0.601332
160 1 0.652258 0.561709 0.626677
10 2 0.405968 0.357098 0.656042
138 1 0.350448 0.36786 0.696085
14 2 0.634175 0.273433 0.669718
74 1 0.460444 0.321376 0.694274
106 1 0.465153 0.324651 0.697777
78 1 0.700603 0.386833 0.67003
110 1 0.72286 0.292954 0.697152
142 1 0.622071 0.300593 0.676721
12 2 0.328768 0.56704 0.64685
50 2 0.422489 0.486933 0.680298
140 1 0.406357 0.586113 0.70918
16 2 0.615385 0.462229 0.647896
108 1 0.512041 0.514191 0.717634
122 1 0.484231 0.356112 0.731841
54 2 0.56164 0.402963 0.692431
112 1 0.755031 0.585145 0.711293
126 1 0.705336 0.404525 0.708694
144 1 0.659242 0.513904 0.704891
52 2 0.300627 0.651471 0.690349
76 1 0.442012 0.615296 0.668186
124 1 0.427909 0.703867 0.693115
56 2 0.562763 0.569121 0.680664
80 1 0.658417 0.578119 0.671496
128 1 0.64659 0.6361 0.705293
26 2 0.284924 0.339223 0.731352
30 2 0.593145 0.277052 0.720303
90 1 0.3901 0.283656 0.722363
94 1 0.710246 0.294178 0.721465
28 2 0.291645 0.585986 0.733617
34 2 0.381944 0.455477 0.727556
32 2 0.492598 0.530309 0.749485
38 2 0.606258 0.431657 0.738111
36 2 0.369698 0.705946 0.729663
92 1 0.403832 0.675194 0.737457
40 2 0.518204 0.654631 0.721846
96 1 0.614149 0.564627 0.73681
ITEM: TIMESTEP
200
ITEM: NUMBER OF ATOMS
192
ITEM: BOX BOUNDS pp pp pp
-5.1810099999999997e+00 1.3918990000000001e+01
-5.1810099999999997e+00 1.3918990000000001e+01
-1.6228500000000000e+01 4.5771500000000003e+01
ITEM: ATOMS id type xs ys zs
1 2 0.355865 0.341246 0.281038
145 1 0.452459 0.269657 0.270203
161 1 0.260467 0.354956 0.25887
177 1 0.455741 0.353832 0.257984
5 2 0.556943 0.336157 0.28134
165 1 0.540282 0.383184 0.246744
149 1 0.63233 0.248072 0.268769
181 1 0.636871 0.442162 0.282393
3 2 0.29836 0.630716 0.298029
65 1 0.279193 0.415984 0.300781
147 1 0.409878 0.516432 0.260695
7 2 0.52289 0.566034 0.264665
69 1 0.579221 0.432375 0.309089
151 1 0.742695 0.465939 0.286123
67 1 0.375507 0.726695 0.307617
163 1 0.24308 0.66136 0.266619
179 1 0.307694 0.642014 0.261277
167 1 0.528993 0.661764 0.242544
71 1 0.543764 0.682772 0.287336
183 1 0.605696 0.590026 0.238673
97 1 0.334844 0.335092 0.323905
41 2 0.479162 0.442903 0.364695
57 2 0.446782 0.401307 0.315562
101 1 0.556993 0.321057 0.326597
45 2 0.653333 0.361461 0.352471
61 2 0.679379 0.307834 0.310813
129 1 0.285656 0.447831 0.325034
113 1 0.360494 0.504368 0.296034
133 1 0.503859 0.517263 0.326616
117 1 0.694827 0.440436 0.3179
99 1 0.320626 0.620758 0.304669
131 1 0.297254 0.714373 0.337932
43 2 0.364668 0.542261 0.338935
59 2 0.453811 0.615036 0.304029
103 1 0.552922 0.653938 0.330335
115 1 0.415854 0.682017 0.339965
135 1 0.636688 0.737 0.327421
47 2 0.611818 0.512191 0.350372
63 2 0.615748 0.555801 0.303777
119 1 0.669925 0.624626 0.336739
9 2 0.382612 0.346858 0.404925
17 2 0.325962 0.406502 0.361296
153 1 0.448228 0.439993 0.38379
169 1 0.398167 0.29606 0.3657
185 1 0.265932 0.413057 0.397157
13 2 0.62321 0.314373 0.423477
21 2 0.525149 0.307537 0.384425
189 1 0.557094 0.436261 0.38045
157 1 0.624009 0.394911 0.391072
173 1 0.610224 0.21758 0.396568
11 2 0.305448 0.541773 0.393697
19 2 0.241425 0.624019 0.357885
81 1 0.267148 0.461076 0.331206
171 1 0.38306 0.535146 0.361552
15 2 0.577295 0.489004 0.416816
23 2 0.486939 0.587928 0.383248
85 1 0.597606 0.382726 0.359541
175 1 0.597553 0.481522 0.37797
83 1 0.296192 0.69911 0.332594
155 1 0.372231 0.584146 0.361562
187 1 0.20765 0.629461 0.395065
191 1 0.506234 0.698791 0.364051
87 1 0.591616 0.635817 0.365907
159 1 0.614961 0.571336 0.387041
137 1 0.396049 0.371617 0.447686
73 1 0.472006 0.269124 0.420082
105 1 0.427555 0.266406 0.432119
77 1 0.750693 0.301392 0.428438
109 1 0.716275 0.26881 0.449117
141 1 0.634739 0.340388 0.430519
49 2 0.416945 0.48798 0.424666
139 1 0.324704 0.532574 0.457157
107 1 0.439988 0.583149 0.452246
121 1 0.517913 0.332401 0.450622
53 2 0.725189 0.435895 0.423523
111 1 0.734312 0.612529 0.462689
125 1 0.774068 0.372676 0.457774
143 1 0.743492 0.493817 0.461042
51 2 0.297545 0.633502 0.43323
75 1 0.401248 0.624364 0.415172
123 1 0.408498 0.704614 0.443976
55 2 0.525262 0.65279 0.427631
79 1 0.683139 0.557844 0.433217
127 1 0.626074 0.653441 0.453714
25 2 0.352885 0.379325 0.487212
146 1 0.409535 0.29636 0.512399
162 1 0.248052 0.409281 0.509938
178 1 0.422182 0.452066 0.516056
29 2 0.6128 0.267846 0.473823
89 1 0.447751 0.29632 0.480641
166 1 0.575856 0.414247 0.476571
93 1 0.734989 0.277914 0.477487
150 1 0.585434 0.228559 0.509443
182 1 0.621981 0.409041 0.486327
27 2 0.312332 0.525601 0.500032
33 2 0.49144 0.461896 0.468403
148 1 0.429999 0.441413 0.513746
31 2 0.617159 0.549874 0.480045
37 2 0.638296 0.413408 0.465277
152 1 0.728801 0.533002 0.496404
35 2 0.342639 0.656399 0.478084
164 1 0.206344 0.600679 0.502873
180 1 0.395258 0.643806 0.506583
91 1 0.420621 0.571451 0.477329
168 1 0.558661 0.583323 0.479667
39 2 0.502166 0.673815 0.475864
95 1 0.721264 0.607285 0.472599
184 1 0.617041 0.606639 0.518507
2 2 0.340593 0.376242 0.537417
98 1 0.369812 0.38478 0.579768
6 2 0.530851 0.352081 0.509473
58 2 0.482349 0.404849 0.559173
102 1 0.552424 0.317641 0.584252
62 2 0.624053 0.354525 0.550786
4 2 0.285604 0.641266 0.53075
66 1 0.30316 0.499759 0.540042
130 1 0.311408 0.474492 0.562626
8 2 0.494611 0.559191 0.513061
114 1 0.376088 0.501353 0.596951
134 1 0.495312 0.529655 0.586708
70 1 0.612947 0.383377 0.552095
118 1 0.691537 0.439783 0.576062
68 1 0.315268 0.749317 0.547459
100 1 0.315926 0.654039 0.570918
132 1 0.274206 0.768368 0.575118
60 2 0.407986 0.560145 0.554927
104 1 0.505117 0.705655 0.573995
116 1 0.389977 0.745168 0.577202
136 1 0.613446 0.75308 0.572917
64 2 0.590125 0.512216 0.551588
72 1 0.50467 0.65128 0.541515
120 1 0.608939 0.633855 0.565699
18 2 0.342756 0.336878 0.614881
154 1 0.415285 0.478386 0.633426
170 1 0.442218 0.265659 0.629658
186 1 0.301155 0.423287 0.641189
22 2 0.577532 0.274356 0.624153
42 2 0.492223 0.41651 0.611164
190 1 0.536597 0.353251 0.65216
46 2 0.681865 0.31752 0.592619
158 1 0.681229 0.34445 0.641135
174 1 0.63615 0.176223 0.643056
20 2 0.273685 0.592479 0.596698
82 1 0.315475 0.445154 0.634486
172 1 0.390264 0.610923 0.617795
24 2 0.51245 0.57361 0.630658
86 1 0.632963 0.396749 0.607746
176 1 0.662883 0.550063 0.624624
84 1 0.302566 0.712918 0.602585
156 1 0.294362 0.674624 0.624442
188 1 0.216837 0.613303 0.631362
44 2 0.422288 0.634689 0.598767
192 1 0.407167 0.648578 0.62951
48 2 0.6201 0.531589 0.599033
88 1 0.55766 0.640348 0.600005
160 1 0.650986 0.565378 0.627166
10 2 0.405164 0.35952 0.657074
138 1 0.349331 0.373625 0.696332
14 2 0.634705 0.271686 0.670016
74 1 0.462982 0.323727 0.692862
106 1 0.459672 0.325607 0.693523
78 1 0.703307 0.385934 0.670269
110 1 0.716145 0.284683 0.700468
142 1 0.621294 0.301841 0.673435
12 2 0.326249 0.568459 0.646909
50 2 0.421378 0.490654 0.681016
140 1 0.403601 0.587636 0.709165
16 2 0.619555 0.461377 0.646932
108 1 0.51236 0.514337 0.717183
122 1 0.487546 0.350729 0.730124
54 2 0.563152 0.404641 0.691178
112 1 0.753224 0.587077 0.712049
126 1 0.703099 0.401301 0.709042
144 1 0.65998 0.513162 0.70473
52 2 0.297146 0.653539 0.692006
76 1 0.441863 0.617928 0.668057
124 1 0.42579 0.705555 0.694186
56 2 0.563063 0.568323 0.679797
80 1 0.660398 0.576913 0.671346
128 1 0.645514 0.636333 0.704764
26 2 0.282759 0.346436 0.731212
30 2 0.599135 0.27655 0.718272
90 1 0.386074 0.286821 0.721898
94 1 0.717505 0.29421 0.724235
28 2 0.293694 0.583256 0.735129
34 2 0.387666 0.455414 0.728619
32 2 0.496022 0.531633 0.751063
38 2 0.605276 0.43066 0.737794
36 2 0.370459 0.704781 0.730641
92 1 0.401206 0.680007 0.736215
40 2 0.51688 0.653484 0.721567
96 1 0.615422 0.563753 0.736556
ITEM: TIMESTEP
300
ITEM: NUMBER OF ATOMS
192
ITEM: BOX BOUNDS pp pp pp
-5.1810099999999997e+00 1.3918990000000001e+01
-5.1810099999999997e+00 1.3918990000000001e+01
-1.6228500000000000e+01 4.5771500000000003e+01
ITEM: ATOMS id type xs ys zs
1 2 0.355981 0.341674 0.281015
145 1 0.452472 0.269763 0.270258
161 1 0.260444 0.354887 0.258876
177 1 0.455918 0.353995 0.257979
5 2 0.556904 0.336344 0.281423
165 1 0.540371 0.383251 0.246805
149 1 0.632253 0.248234 0.268836
181 1 0.636991 0.442263 0.282441
3 2 0.298483 0.630735 0.298006
65 1 0.279028 0.415965 0.300827
147 1 0.40986 0.516052 0.260748
7 2 0.522724 0.566209 0.264623
69 1 0.579039 0.432543 0.309279
151 1 0.742932 0.465922 0.286176
67 1 0.375701 0.726659 0.307608
163 1 0.243017 0.661307 0.266604
179 1 0.307515 0.642159 0.26127
167 1 0.529048 0.661852 0.242474
71 1 0.54345 0.682953 0.287299
183 1 0.605626 0.590013 0.238636
97 1 0.334631 0.33495 0.323892
41 2 0.479099 0.443063 0.364792
57 2 0.44667 0.401065 0.315701
101 1 0.557103 0.320912 0.326644
45 2 0.653455 0.361401 0.352512
61 2 0.679444 0.307884 0.310822
129 1 0.285623 0.44776 0.325034
113 1 0.360383 0.504252 0.296073
133 1 0.503729 0.517098 0.326629
117 1 0.694915 0.440417 0.317928
99 1 0.320692 0.620769 0.304668
131 1 0.29753 0.71448 0.337995
43 2 0.364663 0.542212 0.338925
59 2 0.453901 0.61492 0.304043
103 1 0.552911 0.654191 0.330325
115 1 0.415966 0.681964 0.339986
135 1 0.636882 0.737037 0.327403
47 2 0.611785 0.512078 0.350345
63 2 0.615667 0.555828 0.303764
119 1 0.669848 0.624574 0.336713
9 2 0.382675 0.346915 0.404916
17 2 0.325972 0.406432 0.361277
153 1 0.448197 0.44002 0.383776
169 1 0.398136 0.296023 0.365675
185 1 0.265901 0.412966 0.397137
13 2 0.623153 0.313707 0.423641
21 2 0.52502 0.307431 0.384373
189 1 0.557221 0.436071 0.380425
157 1 0.623966 0.395187 0.390959
173 1 0.60996 0.217563 0.396646
11 2 0.305378 0.541688 0.393673
19 2 0.241481 0.624148 0.357882
81 1 0.26714 0.460991 0.331186
171 1 0.38309 0.535119 0.361561
15 2 0.577295 0.488733 0.416797
23 2 0.486986 0.588011 0.383243
85 1 0.597532 0.382714 0.359565
175 1 0.597701 0.481411 0.377946
83 1 0.296038 0.699182 0.332546
155 1 0.372277 0.583897 0.361552
187 1 0.20764 0.62944 0.395057
191 1 0.50621 0.698861 0.364042
87 1 0.591648 0.635862 0.365891
159 1 0.615005 0.571212 0.387067
137 1 0.396137 0.371658 0.447669
73 1 0.472014 0.269076 0.420044
105 1 0.427635 0.266356 0.432121
77 1 0.750645 0.301422 0.428413
109 1 0.716145 0.26888 0.449058
141 1 0.634753 0.341137 0.430306
49 2 0.416859 0.48817 0.424671
139 1 0.324608 0.532436 0.457207
107 1 0.439871 0.58312 0.452324
121 1 0.517974 0.332363 0.450623
53 2 0.725342 0.435954 0.423515
111 1 0.734135 0.61255 0.462907
125 1 0.774149 0.372597 0.457763
143 1 0.743644 0.493796 0.461054
51 2 0.297585 0.633264 0.433225
75 1 0.401169 0.624633 0.41507
123 1 0.408468 0.704527 0.443968
55 2 0.5252 0.652453 0.427668
79 1 0.682857 0.557691 0.433337
127 1 0.626098 0.653601 0.453706
25 2 0.352921 0.37939 0.487191
146 1 0.409572 0.29642 0.512373
162 1 0.24805 0.409225 0.509916
178 1 0.422141 0.452187 0.516063
29 2 0.612872 0.267865 0.473791
89 1 0.447774 0.296347 0.48064
166 1 0.575997 0.414321 0.476628
93 1 0.735054 0.277854 0.477481
150 1 0.585457 0.228577 0.509423
182 1 0.622096 0.409043 0.486316
27 2 0.312223 0.52565 0.500052
33 2 0.491511 0.461859 0.468384
148 1 0.430046 0.441466 0.513728
31 2 0.617276 0.549884 0.480057
37 2 0.638354 0.413351 0.465278
152 1 0.728862 0.532933 0.496433
35 2 0.342559 0.656411 0.478079
164 1 0.206255 0.600752 0.502924
180 1 0.395288 0.643777 0.50658
91 1 0.420595 0.571377 0.477337
168 1 0.558591 0.583345 0.479603
39 2 0.50214 0.673813 0.475877
95 1 0.721347 0.607305 0.472402
184 1 0.617117 0.606625 0.518478
2 2 0.340613 0.376245 0.537396
98 1 0.369776 0.384726 0.579772
6 2 0.530948 0.352203 0.509474
58 2 0.482358 0.404789 0.559199
102 1 0.552448 0.317522 0.584235
62 2 0.624086 0.35453 0.550797
4 2 0.285669 0.641386 0.530762
66 1 0.303042 0.499711 0.540046
130 1 0.311359 0.474393 0.562638
8 2 0.494667 0.559239 0.513053
114 1 0.375958 0.501281 0.596981
134 1 0.495272 0.529509 0.586721
70 1 0.612967 0.383383 0.5521
118 1 0.691529 0.439857 0.576066
68 1 0.315649 0.749458 0.547445
100 1 0.31617 0.654216 0.570879
132 1 0.274114 0.768372 0.575107
60 2 0.408005 0.559969 0.554924
104 1 0.505095 0.70581 0.57396
116 1 0.389945 0.745443 0.577319
136 1 0.613555 0.753053 0.572898
64 2 0.590223 0.512084 0.551461
72 1 0.504614 0.651238 0.541521
120 1 0.608966 0.633865 0.56566
18 2 0.342696 0.336857 0.614863
154 1 0.415624 0.477945 0.633428
170 1 0.442204 0.265649 0.629692
186 1 0.301088 0.423356 0.64117
22 2 0.57747 0.274448 0.624206
42 2 0.492238 0.416557 0.611149
190 1 0.536456 0.353537 0.65208
46 2 0.681752 0.317602 0.592686
158 1 0.681331 0.344403 0.641101
174 1 0.635964 0.176305 0.643085
20 2 0.273772 0.592378 0.596669
82 1 0.315486 0.445007 0.634582
172 1 0.390184 0.610875 0.617802
24 2 0.512468 0.573547 0.630622
86 1 0.633042 0.396849 0.607719
176 1 0.662996 0.550157 0.624641
84 1 0.302444 0.712785 0.602612
156 1 0.294296 0.674756 0.624615
188 1 0.216778 0.613144 0.631291
44 2 0.422365 0.634686 0.598733
192 1 0.407035 0.648522 0.629486
48 2 0.620006 0.531493 0.599062
88 1 0.557585 0.640342 0.599957
160 1 0.650965 0.565611 0.627191
10 2 0.405371 0.35957 0.65701
138 1 0.349456 0.373665 0.696347
14 2 0.634874 0.271641 0.669942
74 1 0.462773 0.323963 0.692884
106 1 0.459682 0.325455 0.693474
78 1 0.703329 0.38587 0.670274
110 1 0.716228 0.284505 0.700485
142 1 0.621037 0.301864 0.673369
12 2 0.326239 0.568244 0.646852
50 2 0.421324 0.490705 0.681012
140 1 0.403583 0.58768 0.70914
16 2 0.619618 0.461368 0.64688
108 1 0.512385 0.514391 0.717162
122 1 0.48756 0.350698 0.7301
54 2 0.563066 0.404584 0.691144
112 1 0.753157 0.587101 0.712068
126 1 0.703017 0.401137 0.709027
144 1 0.659954 0.513118 0.704701
52 2 0.297117 0.653555 0.692042
76 1 0.441832 0.618027 0.668064
124 1 0.425507 0.705713 0.694057
56 2 0.563037 0.568298 0.679767
80 1 0.660572 0.576843 0.671316
128 1 0.645494 0.636388 0.704806
26 2 0.28268 0.346728 0.731219
30 2 0.599196 0.276546 0.718248
90 1 0.385892 0.286861 0.721897
94 1 0.717515 0.294191 0.724315
28 2 0.293851 0.583176 0.735177
34 2 0.387847 0.455426 0.728629
32 2 0.496096 0.531679 0.751115
38 2 0.605209 0.430641 0.737761
36 2 0.370528 0.704718 0.730683
92 1 0.401149 0.680136 0.73618
40 2 0.516879 0.653431 0.721581
96 1 0.615433 0.563736 0.736519
ITEM: TIMESTEP
326
ITEM: NUMBER OF ATOMS
192
ITEM: BOX BOUNDS pp pp pp
-5.1810099999999997e+00 1.3918990000000001e+01
-5.1810099999999997e+00 1.3918990000000001e+01
-1.6228500000000000e+01 4.5771500000000003e+01
ITEM: ATOMS id type xs ys zs
1 2 0.355981 0.341674 0.281015
145 1 0.452472 0.269763 0.270258
161 1 0.260444 0.354887 0.258876
177 1 0.455918 0.353995 0.257979
5 2 0.556904 0.336344 0.281423
165 1 0.540371 0.383251 0.246805
149 1 0.632253 0.248234 0.268836
181 1 0.636991 0.442263 0.282441
3 2 0.298483 0.630735 0.298006
65 1 0.279028 0.415965 0.300827
147 1 0.40986 0.516052 0.260748
7 2 0.522724 0.566209 0.264623
69 1 0.579039 0.432543 0.309279
151 1 0.742932 0.465922 0.286176
67 1 0.375701 0.726659 0.307608
163 1 0.243017 0.661307 0.266604
179 1 0.307515 0.642159 0.26127
167 1 0.529048 0.661852 0.242474
71 1 0.54345 0.682953 0.287299
183 1 0.605626 0.590013 0.238636
97 1 0.334631 0.33495 0.323892
41 2 0.479099 0.443063 0.364792
57 2 0.44667 0.401065 0.315701
101 1 0.557103 0.320912 0.326644
45 2 0.653455 0.361401 0.352512
61 2 0.679444 0.307884 0.310822
129 1 0.285623 0.44776 0.325034
113 1 0.360383 0.504252 0.296073
133 1 0.503729 0.517098 0.326629
117 1 0.694915 0.440417 0.317928
99 1 0.320692 0.620769 0.304668
131 1 0.29753 0.71448 0.337995
43 2 0.364663 0.542212 0.338925
59 2 0.453901 0.61492 0.304043
103 1 0.552911 0.654191 0.330325
115 1 0.415966 0.681964 0.339986
135 1 0.636882 0.737037 0.327403
47 2 0.611785 0.512078 0.350345
63 2 0.615667 0.555828 0.303764
119 1 0.669848 0.624574 0.336713
9 2 0.382675 0.346915 0.404916
17 2 0.325972 0.406432 0.361277
153 1 0.448197 0.44002 0.383776
169 1 0.398136 0.296023 0.365675
185 1 0.265901 0.412966 0.397137
13 2 0.623153 0.313707 0.423641
21 2 0.52502 0.307431 0.384373
189 1 0.557221 0.436071 0.380425
157 1 0.623966 0.395187 0.390959
173 1 0.60996 0.217563 0.396646
11 2 0.305378 0.541688 0.393673
19 2 0.241481 0.624148 0.357882
81 1 0.26714 0.460991 0.331186
171 1 0.38309 0.535119 0.361561
15 2 0.577295 0.488733 0.416797
23 2 0.486986 0.588011 0.383243
85 1 0.597532 0.382714 0.359565
175 1 0.597701 0.481411 0.377946
83 1 0.296038 0.699182 0.332546
155 1 0.372277 0.583897 0.361552
187 1 0.20764 0.62944 0.395057
191 1 0.50621 0.698861 0.364042
87 1 0.591648 0.635862 0.365891
159 1 0.615005 0.571212 0.387067
137 1 0.396137 0.371658 0.447669
73 1 0.472014 0.269076 0.420044
105 1 0.427635 0.266356 0.432121
77 1 0.750645 0.301422 0.428413
109 1 0.716145 0.26888 0.449058
141 1 0.634753 0.341137 0.430306
49 2 0.416859 0.48817 0.424671
139 1 0.324608 0.532436 0.457207
107 1 0.439871 0.58312 0.452324
121 1 0.517974 0.332363 0.450623
53 2 0.725342 0.435954 0.423515
111 1 0.734135 0.61255 0.462907
125 1 0.774149 0.372597 0.457763
143 1 0.743644 0.493796 0.461054
51 2 0.297585 0.633264 0.433225
75 1 0.401169 0.624633 0.41507
123 1 0.408468 0.704527 0.443968
55 2 0.5252 0.652453 0.427668
79 1 0.682857 0.557691 0.433337
127 1 0.626098 0.653601 0.453706
25 2 0.352921 0.37939 0.487191
146 1 0.409572 0.29642 0.512373
162 1 0.24805 0.409225 0.509916
178 1 0.422141 0.452187 0.516063
29 2 0.612872 0.267865 0.473791
89 1 0.447774 0.296347 0.48064
166 1 0.575997 0.414321 0.476628
93 1 0.735054 0.277854 0.477481
150 1 0.585457 0.228577 0.509423
182 1 0.622096 0.409043 0.486316
27 2 0.312223 0.52565 0.500052
33 2 0.491511 0.461859 0.468384
148 1 0.430046 0.441466 0.513728
31 2 0.617276 0.549884 0.480057
37 2 0.638354 0.413351 0.465278
152 1 0.728862 0.532933 0.496433
35 2 0.342559 0.656411 0.478079
164 1 0.206255 0.600752 0.502924
180 1 0.395288 0.643777 0.50658
91 1 0.420595 0.571377 0.477337
168 1 0.558591 0.583345 0.479603
39 2 0.50214 0.673813 0.475877
95 1 0.721347 0.607305 0.472402
184 1 0.617117 0.606625 0.518478
2 2 0.340613 0.376245 0.537396
98 1 0.369776 0.384726 0.579772
6 2 0.530948 0.352203 0.509474
58 2 0.482358 0.404789 0.559199
102 1 0.552448 0.317522 0.584235
62 2 0.624086 0.35453 0.550797
4 2 0.285669 0.641386 0.530762
66 1 0.303042 0.499711 0.540046
130 1 0.311359 0.474393 0.562638
8 2 0.494667 0.559239 0.513053
114 1 0.375958 0.501281 0.596981
134 1 0.495272 0.529509 0.586721
70 1 0.612967 0.383383 0.5521
118 1 0.691529 0.439857 0.576066
68 1 0.315649 0.749458 0.547445
100 1 0.31617 0.654216 0.570879
132 1 0.274114 0.768372 0.575107
60 2 0.408005 0.559969 0.554924
104 1 0.505095 0.70581 0.57396
116 1 0.389945 0.745443 0.577319
136 1 0.613555 0.753053 0.572898
64 2 0.590223 0.512084 0.551461
72 1 0.504614 0.651238 0.541521
120 1 0.608966 0.633865 0.56566
18 2 0.342696 0.336857 0.614863
154 1 0.415624 0.477945 0.633428