ITEM: TIMESTEP
0
ITEM: NUMBER OF ATOMS
192
ITEM: BOX BOUNDS pp pp pp
-5.1810099999999997e+00 1.3918990000000001e+01
-5.1810099999999997e+00 1.3918990000000001e+01
-1.6228500000000000e+01 4.5771500000000003e+01
ITEM: ATOMS id type xs ys zs
1 2 0.355981 0.341674 0.281015
161 1 0.260444 0.354887 0.258876
145 1 0.452472 0.269763 0.270258
177 1 0.455918 0.353995 0.257979
5 2 0.556904 0.336344 0.281423
165 1 0.540371 0.383251 0.246805
149 1 0.632253 0.248234 0.268836
147 1 0.40986 0.516052 0.260748
7 2 0.522724 0.566209 0.264623
181 1 0.636991 0.442263 0.282441
151 1 0.742932 0.465922 0.286176
183 1 0.605626 0.590013 0.238636
163 1 0.243017 0.661307 0.266604
179 1 0.307515 0.642159 0.26127
167 1 0.529048 0.661852 0.242474
71 1 0.54345 0.682953 0.287299
97 1 0.334631 0.33495 0.323892
101 1 0.557103 0.320912 0.326644
45 2 0.653455 0.361401 0.352512
61 2 0.679444 0.307884 0.310822
65 1 0.279028 0.415965 0.300827
129 1 0.285623 0.44776 0.325034
113 1 0.360383 0.504252 0.296073
43 2 0.364663 0.542212 0.338925
81 1 0.26714 0.460991 0.331186
69 1 0.579039 0.432543 0.309279
57 2 0.44667 0.401065 0.315701
133 1 0.503729 0.517098 0.326629
117 1 0.694915 0.440417 0.317928
47 2 0.611785 0.512078 0.350345
63 2 0.615667 0.555828 0.303764
3 2 0.298483 0.630735 0.298006
67 1 0.375701 0.726659 0.307608
99 1 0.320692 0.620769 0.304668
131 1 0.29753 0.71448 0.337995
83 1 0.296038 0.699182 0.332546
59 2 0.453901 0.61492 0.304043
103 1 0.552911 0.654191 0.330325
115 1 0.415966 0.681964 0.339986
135 1 0.636882 0.737037 0.327403
119 1 0.669848 0.624574 0.336713
9 2 0.382675 0.346915 0.404916
169 1 0.398136 0.296023 0.365675
21 2 0.52502 0.307431 0.384373
85 1 0.597532 0.382714 0.359565
157 1 0.623966 0.395187 0.390959
173 1 0.60996 0.217563 0.396646
17 2 0.325972 0.406432 0.361277
185 1 0.265901 0.412966 0.397137
11 2 0.305378 0.541688 0.393673
171 1 0.38309 0.535119 0.361561
155 1 0.372277 0.583897 0.361552
41 2 0.479099 0.443063 0.364792
153 1 0.448197 0.44002 0.383776
189 1 0.557221 0.436071 0.380425
23 2 0.486986 0.588011 0.383243
175 1 0.597701 0.481411 0.377946
159 1 0.615005 0.571212 0.387067
19 2 0.241481 0.624148 0.357882
187 1 0.20764 0.62944 0.395057
191 1 0.50621 0.698861 0.364042
87 1 0.591648 0.635862 0.365891
137 1 0.396137 0.371658 0.447669
73 1 0.472014 0.269076 0.420044
105 1 0.427635 0.266356 0.432121
121 1 0.517974 0.332363 0.450623
13 2 0.623153 0.313707 0.423641
77 1 0.750645 0.301422 0.428413
109 1 0.716145 0.26888 0.449058
141 1 0.634753 0.341137 0.430306
125 1 0.774149 0.372597 0.457763
139 1 0.324608 0.532436 0.457207
15 2 0.577295 0.488733 0.416797
49 2 0.416859 0.48817 0.424671
107 1 0.439871 0.58312 0.452324
33 2 0.491511 0.461859 0.468384
53 2 0.725342 0.435954 0.423515
143 1 0.743644 0.493796 0.461054
79 1 0.682857 0.557691 0.433337
37 2 0.638354 0.413351 0.465278
51 2 0.297585 0.633264 0.433225
75 1 0.401169 0.624633 0.41507
123 1 0.408468 0.704527 0.443968
55 2 0.5252 0.652453 0.427668
111 1 0.734135 0.61255 0.462907
127 1 0.626098 0.653601 0.453706
25 2 0.352921 0.37939 0.487191
146 1 0.409572 0.29642 0.512373
89 1 0.447774 0.296347 0.48064
150 1 0.585457 0.228577 0.509423
6 2 0.530948 0.352203 0.509474
29 2 0.612872 0.267865 0.473791
93 1 0.735054 0.277854 0.477481
162 1 0.24805 0.409225 0.509916
27 2 0.312223 0.52565 0.500052
178 1 0.422141 0.452187 0.516063
166 1 0.575997 0.414321 0.476628
148 1 0.430046 0.441466 0.513728
91 1 0.420595 0.571377 0.477337
168 1 0.558591 0.583345 0.479603
8 2 0.494667 0.559239 0.513053
182 1 0.622096 0.409043 0.486316
31 2 0.617276 0.549884 0.480057
152 1 0.728862 0.532933 0.496433
35 2 0.342559 0.656411 0.478079
164 1 0.206255 0.600752 0.502924
180 1 0.395288 0.643777 0.50658
39 2 0.50214 0.673813 0.475877
95 1 0.721347 0.607305 0.472402
184 1 0.617117 0.606625 0.518478
2 2 0.340613 0.376245 0.537396
98 1 0.369776 0.384726 0.579772
102 1 0.552448 0.317522 0.584235
62 2 0.624086 0.35453 0.550797
70 1 0.612967 0.383383 0.5521
66 1 0.303042 0.499711 0.540046
130 1 0.311359 0.474393 0.562638
58 2 0.482358 0.404789 0.559199
134 1 0.495272 0.529509 0.586721
60 2 0.408005 0.559969 0.554924
64 2 0.590223 0.512084 0.551461
118 1 0.691529 0.439857 0.576066
4 2 0.285669 0.641386 0.530762
68 1 0.315649 0.749458 0.547445
100 1 0.31617 0.654216 0.570879
132 1 0.274114 0.768372 0.575107
116 1 0.389945 0.745443 0.577319
104 1 0.505095 0.70581 0.57396
72 1 0.504614 0.651238 0.541521
136 1 0.613555 0.753053 0.572898
120 1 0.608966 0.633865 0.56566
174 1 0.635964 0.176305 0.643085
18 2 0.342696 0.336857 0.614863
170 1 0.442204 0.265649 0.629692
22 2 0.57747 0.274448 0.624206
46 2 0.681752 0.317602 0.592686
158 1 0.681331 0.344403 0.641101
86 1 0.633042 0.396849 0.607719
114 1 0.375958 0.501281 0.596981
186 1 0.301088 0.423356 0.64117
20 2 0.273772 0.592378 0.596669
82 1 0.315486 0.445007 0.634582
12 2 0.326239 0.568244 0.646852
154 1 0.415624 0.477945 0.633428
42 2 0.492238 0.416557 0.611149
24 2 0.512468 0.573547 0.630622
176 1 0.662996 0.550157 0.624641
48 2 0.620006 0.531493 0.599062
160 1 0.650965 0.565611 0.627191
16 2 0.619618 0.461368 0.64688
172 1 0.390184 0.610875 0.617802
84 1 0.302444 0.712785 0.602612
156 1 0.294296 0.674756 0.624615
188 1 0.216778 0.613144 0.631291
44 2 0.422365 0.634686 0.598733
192 1 0.407035 0.648522 0.629486
88 1 0.557585 0.640342 0.599957
138 1 0.349456 0.373665 0.696347
190 1 0.536456 0.353537 0.65208
10 2 0.405371 0.35957 0.65701
74 1 0.462773 0.323963 0.692884
106 1 0.459682 0.325455 0.693474
14 2 0.634874 0.271641 0.669942
78 1 0.703329 0.38587 0.670274
110 1 0.716228 0.284505 0.700485
142 1 0.621037 0.301864 0.673369
50 2 0.421324 0.490705 0.681012
54 2 0.563066 0.404584 0.691144
56 2 0.563037 0.568298 0.679767
144 1 0.659954 0.513118 0.704701
80 1 0.660572 0.576843 0.671316
52 2 0.297117 0.653555 0.692042
76 1 0.441832 0.618027 0.668064
124 1 0.425507 0.705713 0.694057
128 1 0.645494 0.636388 0.704806
26 2 0.28268 0.346728 0.731219
90 1 0.385892 0.286861 0.721897
122 1 0.48756 0.350698 0.7301
30 2 0.599196 0.276546 0.718248
94 1 0.717515 0.294191 0.724315
28 2 0.293851 0.583176 0.735177
34 2 0.387847 0.455426 0.728629
140 1 0.403583 0.58768 0.70914
108 1 0.512385 0.514391 0.717162
32 2 0.496096 0.531679 0.751115
112 1 0.753157 0.587101 0.712068
126 1 0.703017 0.401137 0.709027
38 2 0.605209 0.430641 0.737761
96 1 0.615433 0.563736 0.736519
36 2 0.370528 0.704718 0.730683
92 1 0.401149 0.680136 0.73618
40 2 0.516879 0.653431 0.721581
ITEM: TIMESTEP
100
ITEM: NUMBER OF ATOMS
192
ITEM: BOX BOUNDS pp pp pp
-5.1810099999999997e+00 1.3918990000000001e+01
-5.1810099999999997e+00 1.3918990000000001e+01
-1.6228500000000000e+01 4.5771500000000003e+01
ITEM: ATOMS id type xs ys zs
1 2 0.357276 0.348484 0.280725
161 1 0.260002 0.351674 0.258966
145 1 0.452773 0.271798 0.271606
177 1 0.459244 0.357511 0.257933
5 2 0.556962 0.339122 0.282646
165 1 0.541696 0.383996 0.247519
149 1 0.631443 0.250581 0.270231
147 1 0.408865 0.506206 0.263221
7 2 0.520778 0.567781 0.264216
181 1 0.638385 0.444914 0.283525
151 1 0.748977 0.465542 0.287471
183 1 0.603317 0.589562 0.237804
163 1 0.245298 0.660712 0.266697
179 1 0.302235 0.643037 0.261111
167 1 0.530099 0.66189 0.241162
71 1 0.541538 0.679445 0.287003
97 1 0.330042 0.333822 0.323622
101 1 0.558157 0.314409 0.326111
45 2 0.649148 0.362571 0.352866
61 2 0.679956 0.308374 0.310886
65 1 0.274169 0.415227 0.301921
129 1 0.283853 0.448762 0.325133
113 1 0.363212 0.495583 0.298193
43 2 0.367207 0.540764 0.339089
81 1 0.271363 0.457293 0.329765
69 1 0.573132 0.43769 0.313759
57 2 0.444651 0.398674 0.316972
133 1 0.502084 0.514662 0.327222
117 1 0.69506 0.439592 0.318344
47 2 0.612812 0.514207 0.349963
63 2 0.61664 0.557734 0.30361
3 2 0.300523 0.632599 0.297691
67 1 0.374835 0.726452 0.308547
99 1 0.319394 0.617995 0.303621
131 1 0.299054 0.714307 0.340822
83 1 0.299296 0.703189 0.330221
59 2 0.450031 0.612865 0.303893
103 1 0.551428 0.661737 0.32927
115 1 0.416487 0.6783 0.340343
135 1 0.641933 0.738489 0.326924
119 1 0.668799 0.625094 0.33603
9 2 0.382756 0.346642 0.405075
169 1 0.399675 0.295844 0.364612
21 2 0.52013 0.309786 0.384342
85 1 0.591967 0.382192 0.357616
157 1 0.61573 0.39654 0.387797
173 1 0.59611 0.216532 0.398837
17 2 0.330879 0.407282 0.36113
185 1 0.267095 0.412205 0.396368
11 2 0.303399 0.541675 0.393411
171 1 0.386826 0.535915 0.362542
155 1 0.374656 0.575175 0.361244
41 2 0.482454 0.439202 0.365609
153 1 0.473018 0.43775 0.388989
189 1 0.559765 0.435101 0.379949
23 2 0.48854 0.587459 0.383002
175 1 0.591324 0.486835 0.377853
159 1 0.616439 0.569353 0.386952
19 2 0.243017 0.624757 0.357645
187 1 0.207487 0.628722 0.394908
191 1 0.506213 0.700005 0.364039
87 1 0.589835 0.637558 0.364647
137 1 0.397722 0.371969 0.447613
73 1 0.471989 0.264959 0.419521
105 1 0.427546 0.26497 0.432392
121 1 0.517665 0.33302 0.449874
13 2 0.620779 0.312976 0.423454
77 1 0.74986 0.30103 0.427408
109 1 0.716589 0.269338 0.447999
141 1 0.639107 0.347556 0.429281
125 1 0.775924 0.370241 0.457297
139 1 0.323101 0.529987 0.458398
15 2 0.57506 0.483729 0.416945
49 2 0.4155 0.489693 0.424416
107 1 0.43755 0.580521 0.454889
33 2 0.494728 0.461956 0.469206
53 2 0.728388 0.438267 0.423443
143 1 0.748728 0.491822 0.46109
79 1 0.675835 0.554081 0.436656
37 2 0.639364 0.412718 0.464736
51 2 0.298127 0.63032 0.433129
75 1 0.400183 0.630355 0.412375
123 1 0.408663 0.70154 0.443863
55 2 0.524166 0.648794 0.428646
111 1 0.723833 0.604582 0.468405
127 1 0.627529 0.658513 0.453127
25 2 0.351174 0.379659 0.487184
146 1 0.412794 0.298482 0.511817
89 1 0.448119 0.299324 0.480326
150 1 0.587459 0.228553 0.509746
6 2 0.53559 0.34904 0.508143
29 2 0.613036 0.265648 0.47371
93 1 0.735608 0.277324 0.477834
162 1 0.246694 0.408338 0.509424
27 2 0.310496 0.527306 0.500031
178 1 0.407672 0.46954 0.517498
166 1 0.575046 0.421767 0.475705
148 1 0.433698 0.442511 0.511826
91 1 0.419299 0.569636 0.477314
168 1 0.562427 0.581717 0.476012
8 2 0.498266 0.56023 0.512224
182 1 0.626928 0.411125 0.48484
31 2 0.617207 0.553664 0.480717
152 1 0.729342 0.531943 0.496878
35 2 0.338887 0.657637 0.477233
164 1 0.206698 0.603223 0.504574
180 1 0.398535 0.643633 0.506707
39 2 0.499697 0.670817 0.477833
95 1 0.722417 0.611159 0.468414
184 1 0.616479 0.601313 0.516512
2 2 0.342042 0.375144 0.536725
98 1 0.366462 0.382643 0.579172
102 1 0.553185 0.313795 0.584961
62 2 0.628362 0.351009 0.550292
70 1 0.612951 0.388245 0.551715
66 1 0.29713 0.495663 0.539554
130 1 0.312476 0.471128 0.562486
58 2 0.479551 0.404439 0.560359
134 1 0.493447 0.525587 0.585737
60 2 0.40587 0.559572 0.553071
64 2 0.586444 0.514513 0.551329
118 1 0.691281 0.441188 0.575613
4 2 0.291425 0.641821 0.531283
68 1 0.326125 0.752662 0.546651
100 1 0.319635 0.663057 0.571312
132 1 0.271954 0.773217 0.575068
116 1 0.390621 0.755271 0.580199
104 1 0.504713 0.708181 0.573033
72 1 0.503919 0.65284 0.540914
136 1 0.615052 0.752089 0.572404
120 1 0.609541 0.634578 0.565038
174 1 0.631579 0.175883 0.643458
18 2 0.333914 0.330478 0.611119
170 1 0.442086 0.261935 0.628885
22 2 0.576756 0.276516 0.624697
46 2 0.682378 0.318623 0.593571
158 1 0.685186 0.342021 0.640702
86 1 0.634109 0.396999 0.607468
114 1 0.384179 0.499859 0.595974
186 1 0.280273 0.435161 0.637014
20 2 0.277569 0.590636 0.597175
82 1 0.299242 0.451887 0.632905
12 2 0.322808 0.565767 0.647589
154 1 0.421529 0.489595 0.631268
42 2 0.493657 0.417053 0.610942
24 2 0.510122 0.575573 0.630763
176 1 0.665332 0.552137 0.625077
48 2 0.618731 0.530411 0.599125
160 1 0.6491 0.569989 0.627359
16 2 0.621365 0.461774 0.646787
172 1 0.384989 0.605132 0.615731
84 1 0.30165 0.712636 0.604472
156 1 0.287611 0.671774 0.626293
188 1 0.21466 0.613155 0.630201
44 2 0.425519 0.634037 0.596207
192 1 0.400044 0.651804 0.63275
88 1 0.558387 0.638813 0.598905
138 1 0.348154 0.376655 0.696359
190 1 0.527878 0.35982 0.651472
10 2 0.39409 0.371543 0.646902
74 1 0.523816 0.256981 0.715222
106 1 0.474361 0.312457 0.692017
14 2 0.635962 0.271532 0.669299
78 1 0.703186 0.385465 0.670036
110 1 0.711857 0.287184 0.70127
142 1 0.61759 0.300424 0.671496
50 2 0.421791 0.48854 0.681387
54 2 0.561471 0.395343 0.692395
56 2 0.561734 0.56707 0.67927
144 1 0.65996 0.512306 0.70377
80 1 0.66795 0.572347 0.670751
52 2 0.296434 0.65348 0.692329
76 1 0.436681 0.61821 0.666949
124 1 0.424836 0.708013 0.694358
128 1 0.645089 0.635225 0.705422
26 2 0.28112 0.349506 0.731455
90 1 0.3873 0.29695 0.722639
122 1 0.491434 0.384439 0.752038
30 2 0.602243 0.279918 0.718812
94 1 0.730104 0.29502 0.725855
28 2 0.295573 0.582532 0.735612
34 2 0.38979 0.454729 0.728854
140 1 0.40356 0.5888 0.708455
108 1 0.512822 0.514356 0.716868
32 2 0.496823 0.532582 0.751515
112 1 0.752065 0.587197 0.712604
126 1 0.70084 0.399928 0.708608
38 2 0.604985 0.430286 0.737634
96 1 0.616169 0.562313 0.736244
36 2 0.370898 0.704554 0.730855
92 1 0.399743 0.682692 0.735216
40 2 0.516496 0.653359 0.721527
ITEM: TIMESTEP
200
ITEM: NUMBER OF ATOMS
192
ITEM: BOX BOUNDS pp pp pp
-5.1810099999999997e+00 1.3918990000000001e+01
-5.1810099999999997e+00 1.3918990000000001e+01
-1.6228500000000000e+01 4.5771500000000003e+01
ITEM: ATOMS id type xs ys zs
1 2 0.361694 0.374638 0.278827
161 1 0.260644 0.344015 0.259824
145 1 0.45015 0.284181 0.27576
177 1 0.470444 0.370156 0.257836
5 2 0.557267 0.349154 0.285723
165 1 0.542345 0.378398 0.249192
149 1 0.628326 0.256914 0.273371
147 1 0.41497 0.471883 0.265925
7 2 0.514562 0.567102 0.263371
181 1 0.645266 0.446309 0.284667
151 1 0.76391 0.464227 0.291973
183 1 0.594131 0.587727 0.236209
163 1 0.248604 0.661674 0.264417
179 1 0.28826 0.647114 0.260234
167 1 0.53083 0.655709 0.238545
71 1 0.537507 0.684166 0.286556
97 1 0.32167 0.331953 0.32396
101 1 0.557282 0.305432 0.32634
45 2 0.640675 0.359658 0.352443
61 2 0.682964 0.310408 0.31122
65 1 0.261453 0.409813 0.301941
129 1 0.277916 0.445193 0.328884
113 1 0.358211 0.488745 0.300653
43 2 0.369914 0.539081 0.340825
81 1 0.288925 0.450695 0.326589
69 1 0.561443 0.442739 0.321581
57 2 0.441405 0.38511 0.322437
133 1 0.503067 0.507762 0.32653
117 1 0.691313 0.442694 0.319558
47 2 0.618653 0.514504 0.351256
63 2 0.610304 0.558629 0.304013
3 2 0.29861 0.633093 0.296202
67 1 0.375829 0.722099 0.309886
99 1 0.322899 0.614801 0.304401
131 1 0.308001 0.729252 0.346018
83 1 0.301257 0.699127 0.330269
59 2 0.451812 0.608991 0.303798
103 1 0.551915 0.674786 0.326312
115 1 0.417216 0.673462 0.341015
135 1 0.649573 0.745774 0.325005
119 1 0.66595 0.63032 0.334159
9 2 0.386153 0.348401 0.405582
169 1 0.400427 0.296883 0.36123
21 2 0.51825 0.302603 0.380645
85 1 0.594811 0.376551 0.356926
157 1 0.605571 0.404749 0.382946
173 1 0.555285 0.205992 0.407779
17 2 0.331237 0.40291 0.361964
185 1 0.264282 0.408553 0.396571
11 2 0.301072 0.53817 0.39158
171 1 0.389775 0.535317 0.362911
155 1 0.378599 0.561937 0.360789
41 2 0.4918 0.44352 0.368555
153 1 0.485015 0.432233 0.38982
189 1 0.551504 0.431169 0.377968
23 2 0.494441 0.589159 0.382791
175 1 0.607279 0.513583 0.380218
159 1 0.625208 0.561506 0.391071
19 2 0.24871 0.626973 0.356388
187 1 0.206949 0.627653 0.392825
191 1 0.51056 0.697691 0.362812
87 1 0.585851 0.645347 0.361566
137 1 0.398451 0.374083 0.447577
73 1 0.466029 0.257397 0.419158
105 1 0.423782 0.264932 0.434046
121 1 0.520037 0.330871 0.448515
13 2 0.6228 0.318744 0.421487
77 1 0.750527 0.299721 0.424846
109 1 0.715341 0.267346 0.445351
141 1 0.640486 0.350422 0.42714
125 1 0.779225 0.362682 0.455594
139 1 0.316498 0.519049 0.460399
15 2 0.571987 0.475905 0.416854
49 2 0.411888 0.503143 0.425548
107 1 0.428375 0.579093 0.461501
33 2 0.493116 0.45469 0.468441
53 2 0.72982 0.442301 0.422502
143 1 0.761174 0.48379 0.462374
79 1 0.661108 0.541608 0.44517
37 2 0.645269 0.414259 0.463465
51 2 0.303822 0.616147 0.432292
75 1 0.396905 0.646688 0.406298
123 1 0.406819 0.695517 0.442738
55 2 0.516374 0.628918 0.432244
111 1 0.733538 0.604332 0.472433
127 1 0.623591 0.663671 0.456532
25 2 0.348914 0.385007 0.485999
146 1 0.419655 0.303099 0.509203
89 1 0.448479 0.305596 0.478971
150 1 0.597405 0.229859 0.509338
6 2 0.543897 0.35051 0.507356
29 2 0.616409 0.263879 0.471653
93 1 0.737924 0.276819 0.478247
162 1 0.244015 0.405846 0.5089
27 2 0.295285 0.534045 0.500045
178 1 0.398175 0.475932 0.518832
166 1 0.572824 0.423896 0.475218
148 1 0.444111 0.435576 0.50905
91 1 0.418136 0.566641 0.478042
168 1 0.538974 0.574376 0.464315
8 2 0.504299 0.558602 0.51153
182 1 0.630786 0.407432 0.482416
31 2 0.614688 0.549617 0.481841
152 1 0.729546 0.530194 0.49505
35 2 0.331393 0.662932 0.476709
164 1 0.19819 0.616751 0.508544
180 1 0.400025 0.642921 0.50825
39 2 0.497462 0.678236 0.47763
95 1 0.735234 0.643464 0.466467
184 1 0.632178 0.609366 0.519291
2 2 0.343372 0.37273 0.53444
98 1 0.356839 0.373084 0.575013
102 1 0.555067 0.314345 0.584336
62 2 0.629925 0.351573 0.550736
70 1 0.615714 0.388766 0.551834
66 1 0.297957 0.497263 0.538043
130 1 0.306077 0.47333 0.558728
58 2 0.483546 0.396811 0.559096
134 1 0.488087 0.523242 0.584614
60 2 0.409192 0.555199 0.55168
64 2 0.580876 0.514718 0.551378
118 1 0.694594 0.439058 0.577008
4 2 0.294873 0.653958 0.532887
68 1 0.359763 0.755835 0.545731
100 1 0.320866 0.673787 0.570087
132 1 0.273831 0.782179 0.574098
116 1 0.3903 0.761264 0.582936
104 1 0.507921 0.719972 0.57159
72 1 0.502993 0.654573 0.539536
136 1 0.620341 0.752656 0.571077
120 1 0.612035 0.634858 0.561978
174 1 0.617916 0.172993 0.643148
18 2 0.312181 0.326739 0.608784
170 1 0.424194 0.272208 0.625325
22 2 0.573946 0.280476 0.626256
46 2 0.680821 0.322866 0.594986
158 1 0.687711 0.348888 0.639964
86 1 0.638172 0.399712 0.608286
114 1 0.38322 0.496627 0.591727
186 1 0.289493 0.424493 0.628253
20 2 0.285133 0.588372 0.598297
82 1 0.292267 0.433851 0.623211
12 2 0.309827 0.554344 0.645856
154 1 0.410195 0.489077 0.628614
42 2 0.495203 0.41888 0.610817
24 2 0.510688 0.588639 0.630934
176 1 0.668881 0.554111 0.626753
48 2 0.613521 0.528443 0.599068
160 1 0.648698 0.571382 0.626368
16 2 0.62304 0.461905 0.64693
172 1 0.380535 0.596909 0.616431
84 1 0.305734 0.709897 0.606068
156 1 0.263774 0.663599 0.62917
188 1 0.217504 0.629074 0.628866
44 2 0.431025 0.641167 0.592209
192 1 0.394607 0.651968 0.636163
88 1 0.561141 0.644151 0.596412
138 1 0.381297 0.362232 0.694956
190 1 0.523815 0.364822 0.651123
10 2 0.387217 0.37494 0.649468
74 1 0.599003 0.277365 0.725041
106 1 0.463044 0.289773 0.699344
14 2 0.637388 0.271044 0.667541
78 1 0.704015 0.378854 0.668741
110 1 0.732054 0.275707 0.701144
142 1 0.608263 0.304555 0.670221
50 2 0.422572 0.479766 0.681506
54 2 0.55722 0.390129 0.693199
56 2 0.557544 0.561822 0.679587
144 1 0.658908 0.509609 0.703918
80 1 0.682338 0.563108 0.669951
52 2 0.292931 0.653102 0.693423
76 1 0.434456 0.608547 0.668341
124 1 0.420038 0.704158 0.69302
128 1 0.642933 0.632329 0.70473
26 2 0.278948 0.36081 0.729885
90 1 0.397226 0.316917 0.731777
122 1 0.475052 0.413789 0.757375
30 2 0.613633 0.273468 0.720519
94 1 0.72377 0.298513 0.725894
28 2 0.303224 0.579506 0.736752
34 2 0.396234 0.452774 0.73039
140 1 0.40296 0.585404 0.706677
108 1 0.512724 0.513931 0.717543
32 2 0.49732 0.536332 0.752831
112 1 0.749226 0.585008 0.714272
126 1 0.701862 0.396219 0.707266
38 2 0.599596 0.428848 0.739303
96 1 0.616946 0.561802 0.735866
36 2 0.372324 0.704324 0.730313
92 1 0.398115 0.687813 0.733404
40 2 0.515288 0.652084 0.720805
ITEM: TIMESTEP
300
ITEM: NUMBER OF ATOMS
192
ITEM: BOX BOUNDS pp pp pp
-5.1810099999999997e+00 1.3918990000000001e+01
-5.1810099999999997e+00 1.3918990000000001e+01
-1.6228500000000000e+01 4.5771500000000003e+01
ITEM: ATOMS id type xs ys zs
1 2 0.364079 0.384635 0.278798
161 1 0.26846 0.3367 0.261144
145 1 0.448375 0.296162 0.279958
177 1 0.475872 0.406987 0.260038
5 2 0.554713 0.358933 0.289544
165 1 0.538688 0.368433 0.252
149 1 0.622341 0.265099 0.275213
147 1 0.42252 0.482106 0.259988
7 2 0.515389 0.563957 0.263045
181 1 0.643945 0.454962 0.285537
151 1 0.779149 0.463945 0.300201
183 1 0.583573 0.58613 0.23391
163 1 0.255386 0.663164 0.262283
179 1 0.273021 0.651536 0.259447
167 1 0.528934 0.64191 0.235616
71 1 0.522772 0.68132 0.283724
97 1 0.312654 0.33066 0.326026
101 1 0.559241 0.298427 0.329984
45 2 0.644524 0.355836 0.35466
61 2 0.683231 0.314547 0.311499
65 1 0.261728 0.406687 0.297906
129 1 0.276334 0.446137 0.330647
113 1 0.356982 0.493672 0.29993
43 2 0.375726 0.533292 0.342211
81 1 0.279999 0.449554 0.329103
69 1 0.554856 0.442663 0.324537
57 2 0.439194 0.368114 0.326288
133 1 0.50539 0.492617 0.329715
117 1 0.68869 0.443062 0.321481
47 2 0.622892 0.509006 0.355083
63 2 0.602887 0.551441 0.307493
3 2 0.300665 0.632181 0.294604
67 1 0.374023 0.722039 0.309141
99 1 0.32149 0.613234 0.305834
131 1 0.317376 0.734077 0.35327
83 1 0.310256 0.708441 0.32701
59 2 0.452172 0.602627 0.305599
103 1 0.550884 0.680391 0.323009
115 1 0.42041 0.675918 0.341375
135 1 0.650118 0.748706 0.321994
119 1 0.659301 0.632395 0.332739
9 2 0.391408 0.358518 0.404817
169 1 0.401523 0.286154 0.35489
21 2 0.518004 0.29733 0.379072
85 1 0.602739 0.377366 0.357801
157 1 0.624088 0.391991 0.380101
173 1 0.552617 0.213922 0.409247
17 2 0.332963 0.400789 0.362837
185 1 0.267849 0.400502 0.397144
11 2 0.298087 0.532975 0.390049
171 1 0.396025 0.531679 0.362627
155 1 0.385148 0.563689 0.360769
41 2 0.49355 0.441079 0.369782
153 1 0.484391 0.433314 0.385473
189 1 0.535316 0.437529 0.378713
23 2 0.498861 0.595185 0.380756
175 1 0.608068 0.523088 0.380775
159 1 0.647903 0.56065 0.399898
19 2 0.255498 0.630751 0.354972
187 1 0.206389 0.623425 0.39095
191 1 0.524639 0.698839 0.359694
87 1 0.5839 0.660887 0.359766
137 1 0.391695 0.377593 0.446371
73 1 0.453034 0.262786 0.422006
105 1 0.415545 0.267784 0.43147
121 1 0.517408 0.323789 0.447361
13 2 0.621157 0.312027 0.416233
77 1 0.752114 0.300771 0.421128
109 1 0.714343 0.262848 0.440765
141 1 0.643325 0.348721 0.423517
125 1 0.774693 0.365379 0.452194
139 1 0.317565 0.51306 0.461335
15 2 0.56973 0.470883 0.415179
49 2 0.409107 0.502833 0.425514
107 1 0.424232 0.572271 0.465995
33 2 0.485349 0.444953 0.467302
53 2 0.729039 0.450686 0.420767
143 1 0.756518 0.492867 0.459103
79 1 0.658838 0.54262 0.441499
37 2 0.647992 0.413099 0.462093
51 2 0.302379 0.611121 0.434365
75 1 0.388349 0.632616 0.410389
123 1 0.39759 0.703313 0.443245
55 2 0.504521 0.62591 0.431389
111 1 0.729274 0.60402 0.472929
127 1 0.630316 0.648757 0.455429
25 2 0.344028 0.398319 0.483975
146 1 0.422018 0.310715 0.505149
89 1 0.448629 0.315245 0.480622
150 1 0.614671 0.232307 0.507293
6 2 0.55036 0.347811 0.507499
29 2 0.619358 0.264875 0.469852
93 1 0.740908 0.277183 0.476958
162 1 0.240744 0.411321 0.508466
27 2 0.286411 0.548563 0.501889
178 1 0.398295 0.475133 0.513253
166 1 0.584036 0.423054 0.475385
148 1 0.439704 0.433656 0.51017
91 1 0.415895 0.559749 0.479564
168 1 0.560088 0.551924 0.470102
8 2 0.496106 0.5621 0.510723
182 1 0.637252 0.395245 0.479998
31 2 0.625568 0.548985 0.485582
152 1 0.743469 0.528224 0.497615
35 2 0.328426 0.671221 0.477286
164 1 0.194659 0.635375 0.514053
180 1 0.392612 0.646641 0.508394
39 2 0.484865 0.681427 0.476963
95 1 0.741772 0.679134 0.464756
184 1 0.613798 0.608329 0.520772
2 2 0.343692 0.368865 0.53242
98 1 0.353983 0.369419 0.574644
102 1 0.553554 0.302045 0.582546
62 2 0.634473 0.356098 0.55202
70 1 0.617281 0.386928 0.553346
66 1 0.307102 0.491856 0.537362
130 1 0.313583 0.465514 0.557491
58 2 0.476886 0.390806 0.559535
134 1 0.482986 0.521423 0.585561
60 2 0.406342 0.553806 0.552484
64 2 0.582032 0.510384 0.552192
118 1 0.689957 0.446926 0.577731
4 2 0.297524 0.669699 0.534824
68 1 0.414272 0.733087 0.544197
100 1 0.331762 0.676997 0.568816
132 1 0.277571 0.778152 0.566293
116 1 0.395664 0.770392 0.580649
104 1 0.511804 0.731955 0.569322
72 1 0.48781 0.657747 0.541326
136 1 0.631323 0.751929 0.56811
120 1 0.606972 0.639823 0.558275
174 1 0.600214 0.17664 0.643919
18 2 0.319521 0.318649 0.609281
170 1 0.431177 0.260356 0.627147
22 2 0.567159 0.283399 0.624667
46 2 0.675067 0.328714 0.596637
158 1 0.679765 0.345152 0.640541
86 1 0.638114 0.400999 0.610763
114 1 0.380565 0.484248 0.593097
186 1 0.271688 0.433282 0.629368
20 2 0.293864 0.593731 0.598796
82 1 0.309056 0.451772 0.622155
12 2 0.307976 0.54993 0.647286
154 1 0.42343 0.483959 0.630639
42 2 0.491565 0.421291 0.611593
24 2 0.504982 0.583846 0.629756
176 1 0.675518 0.554981 0.626291
48 2 0.609695 0.529367 0.599361
160 1 0.6484 0.564469 0.625525
16 2 0.61929 0.464631 0.647024
172 1 0.375745 0.587053 0.616904
84 1 0.314553 0.719073 0.603133
156 1 0.235962 0.640152 0.63032
188 1 0.225484 0.629121 0.629624
44 2 0.43873 0.647024 0.590488
192 1 0.384679 0.639802 0.631816
88 1 0.564164 0.655666 0.596545
138 1 0.383262 0.35432 0.70313
190 1 0.511418 0.359159 0.649899
10 2 0.377156 0.364925 0.648644
74 1 0.666007 0.333003 0.73785
106 1 0.481086 0.285323 0.693302
14 2 0.637946 0.268789 0.668182
78 1 0.702498 0.382619 0.666701
110 1 0.726842 0.27317 0.697516
142 1 0.612165 0.304445 0.671451
50 2 0.416529 0.478 0.680616
54 2 0.552435 0.388797 0.694925
56 2 0.556676 0.558053 0.679723
144 1 0.65264 0.500154 0.706423
80 1 0.687178 0.544263 0.672419
52 2 0.285176 0.64556 0.694429
76 1 0.427112 0.60522 0.666705
124 1 0.411341 0.697156 0.689809
128 1 0.641638 0.624081 0.703789
26 2 0.283407 0.374952 0.726673
90 1 0.394693 0.339338 0.743857
122 1 0.483282 0.401203 0.756349
30 2 0.61688 0.265566 0.71569
94 1 0.770063 0.303777 0.725607
28 2 0.311556 0.578311 0.738887
34 2 0.399241 0.45872 0.72845
140 1 0.403542 0.583624 0.706993
108 1 0.513798 0.512789 0.717242
32 2 0.490984 0.544298 0.754033
112 1 0.741732 0.579259 0.716411
126 1 0.699111 0.384475 0.705193
38 2 0.589556 0.428073 0.74062
96 1 0.613389 0.554589 0.73755
36 2 0.372097 0.704861 0.728287
92 1 0.40154 0.689049 0.731555
40 2 0.515859 0.651063 0.719063
ITEM: TIMESTEP
400
ITEM: NUMBER OF ATOMS
192
ITEM: BOX BOUNDS pp pp pp
-5.1810099999999997e+00 1.3918990000000001e+01
-5.1810099999999997e+00 1.3918990000000001e+01
-1.6228500000000000e+01 4.5771500000000003e+01
ITEM: ATOMS id type xs ys zs
1 2 0.376629 0.381326 0.27882
161 1 0.284961 0.335631 0.260408
145 1 0.458325 0.280688 0.277361
177 1 0.475888 0.451385 0.266017
5 2 0.55053 0.363551 0.291622
165 1 0.529302 0.362281 0.2546
149 1 0.610724 0.272593 0.274192
147 1 0.397649 0.495696 0.257582
7 2 0.521922 0.557682 0.264122
181 1 0.64233 0.455587 0.28722
151 1 0.795465 0.467732 0.310239
183 1 0.575426 0.585404 0.23267
163 1 0.264436 0.664098 0.260825
179 1 0.256949 0.657052 0.261293
167 1 0.526898 0.62462 0.234113
71 1 0.502653 0.682353 0.283655
97 1 0.310461 0.328767 0.325679
101 1 0.56399 0.301726 0.331553
45 2 0.658273 0.349536 0.357912
61 2 0.679897 0.315838 0.313319
65 1 0.26723 0.403368 0.299869
129 1 0.271965 0.447155 0.330156
113 1 0.352131 0.489941 0.301777
43 2 0.374637 0.533262 0.343694
81 1 0.274635 0.465292 0.330626
69 1 0.55755 0.43439 0.329634
57 2 0.437876 0.364878 0.325254
133 1 0.501279 0.489917 0.329982
117 1 0.689402 0.444513 0.323174
47 2 0.620214 0.506639 0.358837
63 2 0.604993 0.548731 0.31128
3 2 0.305031 0.633338 0.293867
67 1 0.384417 0.718261 0.307316
99 1 0.320915 0.608047 0.306381
131 1 0.33624 0.735009 0.357539
83 1 0.313984 0.707524 0.32647
59 2 0.450175 0.592447 0.305289
103 1 0.549933 0.673572 0.321892
115 1 0.429001 0.675634 0.340357
135 1 0.648411 0.738896 0.318156
119 1 0.659042 0.631422 0.336806
9 2 0.39389 0.360748 0.403719
169 1 0.389854 0.279126 0.356214
21 2 0.507997 0.301486 0.378156
85 1 0.611093 0.368002 0.364255
157 1 0.611995 0.386004 0.380308
173 1 0.55364 0.20436 0.40199
17 2 0.331322 0.39201 0.361341
185 1 0.267895 0.398948 0.395558
11 2 0.299505 0.536665 0.392259
171 1 0.395617 0.530754 0.365039
155 1 0.379814 0.572041 0.362157
41 2 0.496611 0.438474 0.368888
153 1 0.490817 0.432962 0.382296
189 1 0.520939 0.433234 0.376693
23 2 0.49721 0.595777 0.379667
175 1 0.598222 0.512861 0.377457
159 1 0.668501 0.564882 0.410866
19 2 0.266985 0.634935 0.355395
187 1 0.200848 0.619669 0.388162
191 1 0.531557 0.700222 0.358679
87 1 0.574052 0.676484 0.359359
137 1 0.391663 0.369253 0.448151
73 1 0.461011 0.264654 0.416939
105 1 0.416065 0.26853 0.428735
121 1 0.511156 0.322653 0.448383
13 2 0.627938 0.314802 0.414956
77 1 0.752646 0.301149 0.417921
109 1 0.715959 0.266917 0.438796
141 1 0.642642 0.357252 0.420029
125 1 0.76931 0.370485 0.448426
139 1 0.303612 0.516086 0.461826
15 2 0.567092 0.472336 0.41518
49 2 0.404903 0.498486 0.427121
107 1 0.420647 0.56674 0.46185
33 2 0.491968 0.445734 0.466724
53 2 0.724666 0.458005 0.416808
143 1 0.758345 0.488461 0.458635
79 1 0.659485 0.539668 0.439287
37 2 0.640907 0.419858 0.459751
51 2 0.293761 0.610441 0.435755
75 1 0.391648 0.638474 0.411422
123 1 0.39684 0.699984 0.444162
55 2 0.509606 0.625054 0.433969
111 1 0.731757 0.602729 0.472621
127 1 0.629923 0.644067 0.453544
25 2 0.338377 0.408184 0.484161
146 1 0.415237 0.309015 0.500491
89 1 0.440489 0.317872 0.482446
150 1 0.616797 0.231321 0.505134
6 2 0.548951 0.351418 0.50556
29 2 0.621243 0.266524 0.46818
93 1 0.743513 0.283606 0.472366
162 1 0.234972 0.415821 0.507303
27 2 0.290564 0.555609 0.503023
178 1 0.38634 0.478937 0.519499
166 1 0.601631 0.418235 0.475669
148 1 0.44062 0.433342 0.508855
91 1 0.408185 0.549102 0.478078
168 1 0.565139 0.548472 0.466793
8 2 0.493727 0.559301 0.509904
182 1 0.626658 0.413625 0.480104
31 2 0.636867 0.543175 0.487101
152 1 0.753791 0.523318 0.494007
35 2 0.321079 0.682487 0.479061
164 1 0.20233 0.645209 0.518001
180 1 0.388502 0.659776 0.505109
39 2 0.480274 0.676056 0.477515
95 1 0.718804 0.71535 0.460889
184 1 0.610743 0.621402 0.521896
2 2 0.345201 0.365551 0.531074
98 1 0.357655 0.359655 0.573689
102 1 0.554299 0.294334 0.580925
62 2 0.628137 0.35785 0.552493
70 1 0.610726 0.382074 0.554186
66 1 0.295527 0.486671 0.536596
130 1 0.308557 0.457349 0.5592
58 2 0.479744 0.389758 0.560404
134 1 0.474887 0.514557 0.587
60 2 0.403543 0.54823 0.553282
64 2 0.568399 0.509946 0.552427
118 1 0.686183 0.451331 0.576329
4 2 0.310441 0.667296 0.537438
68 1 0.417596 0.740992 0.544346
100 1 0.337891 0.6839 0.568809
132 1 0.294132 0.785147 0.549453
116 1 0.402773 0.778729 0.578364
104 1 0.520707 0.732366 0.568745